Executable      : siesta
Version         : 5.4.2
Architecture    : x86_64
Compiler version: GNU-14.3.0
Compiler flags  : -march=nocona -mtune=haswell -ftree-vectorize -fPIC -fstack-protector-strong -fno-plt -O2 -ffunction-sections -pipe -isystem <prefix>/include -I<prefix>/_build_env/include -fdebug-prefix-map=<prefix>/work=/usr/local/src/conda/siesta-5.4.2 -fdebug-prefix-map=<prefix>=/usr/local/src/conda-prefix -I<prefix>/lib -fallow-argument-mismatch -O3
Parallelisations: none
NetCDF support
NetCDF-4 support
Lua support
DFT-D3 support

Runtime information:
* Directory : /home/UAB/1630649/Documents/2026-03-24 SSN/Optimitzacio/Run_2
* Running in serial mode.
>> Start of run:  24-MAR-2026  12:44:31

                           *********************** 
                           *  WELCOME TO SIESTA  * 
                           *********************** 

 NOTE: Siesta V5 introduces some new defaults for basis-set generation
 NOTE: which might lead to slightly different numerical results.
 NOTE: Please see the manual for full details and compatibility measures.


reinit: Reading from file optimization.fdf

reinit: -----------------------------------------------------------------------
reinit: System Name: 
reinit: -----------------------------------------------------------------------
reinit: System Label: optimization
reinit: -----------------------------------------------------------------------

initatom: Reading input for the pseudopotentials and atomic orbitals ----------
Species number:   1 Atomic number:    7 Label: N
Species number:   2 Atomic number:    6 Label: C
Species number:   3 Atomic number:    1 Label: H
Species number:   4 Atomic number:    8 Label: O

Ground state valence configuration (from tables):   2s02  2p03  3d00  4f00
Ground state valence configuration (from tables):   2s02  2p02  3d00  4f00
Ground state valence configuration (from tables):   1s01  2p00  3d00  4f00
Ground state valence configuration (from tables):   2s02  2p04  3d00  4f00

---- Processing specs for species: N
Reading pseudopotential information in PSML from:
  N.psml
PSML file version: 1.1
Using libxc ids:  101 130
GGA--PBE XC_GGA_X_PBE--XC_GGA_C_PBE pb
PSML uuid: 31bde650-be41-11e7-78a7-66593edf4b14

---- Processing specs for species: C
Reading pseudopotential information in PSML from:
  C.psml
PSML file version: 1.1
Using libxc ids:  101 130
GGA--PBE XC_GGA_X_PBE--XC_GGA_C_PBE pb
PSML uuid: 297821e0-be41-11e7-6802-e1ff7dfff095

---- Processing specs for species: H
Reading pseudopotential information in PSML from:
  H.psml
PSML file version: 1.1
Using libxc ids:  101 130
GGA--PBE XC_GGA_X_PBE--XC_GGA_C_PBE pb
PSML uuid: f95fa9b0-be40-11e7-634a-9594ffff953f

---- Processing specs for species: O
Reading pseudopotential information in PSML from:
  O.psml
PSML file version: 1.1
Using libxc ids:  101 130
GGA--PBE XC_GGA_X_PBE--XC_GGA_C_PBE pb
PSML uuid: 3cff85a0-be41-11e7-6c5c-1b1fe64d18ef

---- Pseudopotential check for N 

Pseudized shells:
2s( 2.00) rc: 1.21
2p( 3.00) rc: 1.36
Valence configuration for ps generation: 2s:2p: Total charge:   5.000000

---- Pseudopotential check for C 

Pseudized shells:
2s( 2.00) rc: 1.20
2p( 2.00) rc: 1.26
Valence configuration for ps generation: 2s:2p: Total charge:   4.000000

---- Pseudopotential check for H 

Pseudized shells:
1s( 1.00) rc: 1.01
2p( 0.00) rc: 0.71
Valence configuration for ps generation: 1s: Total charge:   1.000000

---- Pseudopotential check for O 

Pseudized shells:
2s( 2.00) rc: 1.36
2p( 4.00) rc: 1.46
3d( 0.00) rc: 1.26
Valence configuration for ps generation: 2s:2p: Total charge:   6.000000
For N, standard SIESTA heuristics set lmxkb to 3
 (one more than the basis l, including polarization orbitals).
Use PS.lmax or PS.KBprojectors blocks to override.
For C, standard SIESTA heuristics set lmxkb to 3
 (one more than the basis l, including polarization orbitals).
Use PS.lmax or PS.KBprojectors blocks to override.
For H, standard SIESTA heuristics set lmxkb to 2
 (one more than the basis l, including polarization orbitals).
Use PS.lmax or PS.KBprojectors blocks to override.
For O, standard SIESTA heuristics set lmxkb to 3
 (one more than the basis l, including polarization orbitals).
Use PS.lmax or PS.KBprojectors blocks to override.
N pseudopotential only contains V_ls up to l=1 -- lmxkb reset.
C pseudopotential only contains V_ls up to l=1 -- lmxkb reset.
H pseudopotential only contains V_ls up to l=1 -- lmxkb reset.
O pseudopotential only contains V_ls up to l=2 -- lmxkb reset.

<basis_specs>
===============================================================================
N                    Z=   7    Mass=  14.007        Charge= 0.17977+309
Lmxo=2 Lmxkb= 1    BasisType=split      Semic=F
L=0  Nsemic=0  Cnfigmx=2
          i=1  nzeta=2  polorb=0  (2s)
            splnorm:   0.15000    
               vcte:    40.000    
               rinn:  -0.90000    
               qcoe:    0.0000    
               qyuk:    0.0000    
               qwid:   0.10000E-01
                rcs:    0.0000      0.0000    
            lambdas:    1.0000      1.0000    
L=1  Nsemic=0  Cnfigmx=2
          i=1  nzeta=2  polorb=1  (2p)  (to be polarized perturbatively)
            splnorm:   0.15000    
               vcte:    40.000    
               rinn:  -0.90000    
               qcoe:    0.0000    
               qyuk:    0.0000    
               qwid:   0.10000E-01
                rcs:    0.0000      0.0000    
            lambdas:    1.0000      1.0000    
L=2  Nsemic=0  Cnfigmx=3
          i=1  nzeta=0  polorb=0  (3d)  (perturbative polarization orbital) (from 2p)
-------------------------------------------------------------------------------
L=0  Nkbl=1  erefs: 0.17977+309
L=1  Nkbl=1  erefs: 0.17977+309
===============================================================================
</basis_specs>

Using PAO.SplitTailNorm
atom: Called for N                     (Z =   7)
NOTE: N pseudopotential has channels up to l= 1
NOTE: PAOs with higher l will be generated with V_local
Maximum radius (at nrval) set to   50.00000 8518

read_vps: Pseudopotential generation method:
read_vps: ONCVPSP-3.Hamann's oncvpsp                        
Valence charge in pseudo generation:    5.00000

read_vps: Pseudopotential includes a core correction:
read_vps: Pseudo-core for xc-correction

xc_check: Exchange-correlation functional:
xc_check: GGA Perdew, Burke & Ernzerhof 1996
Got Vlocal (oncv-fit) from psml data
Choosing vlocal chloc cutoff:  6.038618
qtot up to nchloc:    4.99995109
atom: Maximum radius for chlocal:    6.03862
atom: Maximum radius for r*vlocal+2*Zval:    6.03862
Reading KB projs from N psml data
Using scalar-relativistic projectors in PSML file

PSML: Kleinman-Bylander projectors: 
   l= 0   rc=  1.214864   Ekb= 14.989018
   l= 0   rc=  1.221004   Ekb=  1.272610
   l= 1   rc=  1.375180   Ekb= -8.587810
   l= 1   rc=  1.375180   Ekb= -2.013976

PSML: Total number of  Kleinman-Bylander projectors:   8
atom: -------------------------------------------------------------------------

atom: SANKEY-TYPE ORBITALS:
atom: Selected multiple-zeta basis: split     

SPLIT: Orbitals with angular momentum L= 0

SPLIT: Basis orbitals for state 2s

SPLIT: PAO cut-off radius determined from an
SPLIT: energy shift=  0.000735 Ry
Split based on tail norm

   izeta = 1
                 lambda =    1.000000
                     rc =    5.128853
                 energy =   -1.364951
                kinetic =    1.219328
    potential(screened) =   -2.584278
       potential(ionic) =   -8.061064

   izeta = 2
                 rmatch =    2.799004
              splitnorm =    0.150000
                 energy =   -1.108465
                kinetic =    2.068776
    potential(screened) =   -3.177241
       potential(ionic) =   -9.112461

SPLIT: Orbitals with angular momentum L= 1

SPLIT: Basis orbitals for state 2p

SPLIT: PAO cut-off radius determined from an
SPLIT: energy shift=  0.000735 Ry
Split based on tail norm

   izeta = 1
                 lambda =    1.000000
                     rc =    6.614864
                 energy =   -0.520217
                kinetic =    3.392575
    potential(screened) =   -3.912792
       potential(ionic) =   -9.170860

   izeta = 2
                 rmatch =    3.582433
              splitnorm =    0.150000
                 energy =   -0.423250
                kinetic =    4.550527
    potential(screened) =   -4.973778
       potential(ionic) =  -10.717060
*Note: V_local used for l= 2

** Using vlocal for PAOs with L= 2

POLgen: Perturbative polarization orbital with L=  2

POLgen: Polarization orbital for state 2p
*Note: V_local used for lpol= 2

** Using vlocal for PAOs with L= 2
Split based on tail norm

   izeta = 1
                     rc =    6.614864
                 energy =    1.365983
                kinetic =    2.607373
    potential(screened) =   -1.241390
       potential(ionic) =   -5.257349
atom: Total number of Sankey-type orbitals: 13

atm_pop: Valence configuration (for local Pseudopot. screening):
 2s( 2.00)                                                            
 2p( 3.00)                                                            
 3d( 0.00)                                                            
Vna: chval, zval:    5.00000   5.00000

Vna:  Cut-off radius for the neutral-atom potential:   6.614864
comcore: Pseudo-core radius Rcore=  1.572221

atom: _________________________________________________________________________

<basis_specs>
===============================================================================
C                    Z=   6    Mass=  12.011        Charge= 0.17977+309
Lmxo=2 Lmxkb= 1    BasisType=split      Semic=F
L=0  Nsemic=0  Cnfigmx=2
          i=1  nzeta=2  polorb=0  (2s)
            splnorm:   0.15000    
               vcte:    40.000    
               rinn:  -0.90000    
               qcoe:    0.0000    
               qyuk:    0.0000    
               qwid:   0.10000E-01
                rcs:    0.0000      0.0000    
            lambdas:    1.0000      1.0000    
L=1  Nsemic=0  Cnfigmx=2
          i=1  nzeta=2  polorb=1  (2p)  (to be polarized perturbatively)
            splnorm:   0.15000    
               vcte:    40.000    
               rinn:  -0.90000    
               qcoe:    0.0000    
               qyuk:    0.0000    
               qwid:   0.10000E-01
                rcs:    0.0000      0.0000    
            lambdas:    1.0000      1.0000    
L=2  Nsemic=0  Cnfigmx=3
          i=1  nzeta=0  polorb=0  (3d)  (perturbative polarization orbital) (from 2p)
-------------------------------------------------------------------------------
L=0  Nkbl=1  erefs: 0.17977+309
L=1  Nkbl=1  erefs: 0.17977+309
===============================================================================
</basis_specs>

Using PAO.SplitTailNorm
atom: Called for C                     (Z =   6)
NOTE: C pseudopotential has channels up to l= 1
NOTE: PAOs with higher l will be generated with V_local
Maximum radius (at nrval) set to   50.00000 8518

read_vps: Pseudopotential generation method:
read_vps: ONCVPSP-3.Hamann's oncvpsp                        
Valence charge in pseudo generation:    4.00000

read_vps: Pseudopotential includes a core correction:
read_vps: Pseudo-core for xc-correction

xc_check: Exchange-correlation functional:
xc_check: GGA Perdew, Burke & Ernzerhof 1996
Got Vlocal (oncv-fit) from psml data
Choosing vlocal chloc cutoff:  4.122282
qtot up to nchloc:    4.00001153
atom: Maximum radius for chlocal:    4.12228
atom: Maximum radius for r*vlocal+2*Zval:    4.12228
Reading KB projs from C psml data
Using scalar-relativistic projectors in PSML file

PSML: Kleinman-Bylander projectors: 
   l= 0   rc=  1.219773   Ekb= 12.963096
   l= 0   rc=  1.219773   Ekb=  0.771007
   l= 1   rc=  1.278952   Ekb= -8.399923
   l= 1   rc=  1.278952   Ekb= -1.755033

PSML: Total number of  Kleinman-Bylander projectors:   8
atom: -------------------------------------------------------------------------

atom: SANKEY-TYPE ORBITALS:
atom: Selected multiple-zeta basis: split     

SPLIT: Orbitals with angular momentum L= 0

SPLIT: Basis orbitals for state 2s

SPLIT: PAO cut-off radius determined from an
SPLIT: energy shift=  0.000735 Ry
Split based on tail norm

   izeta = 1
                 lambda =    1.000000
                     rc =    5.865727
                 energy =   -1.009782
                kinetic =    0.907850
    potential(screened) =   -1.917632
       potential(ionic) =   -5.443189

   izeta = 2
                 rmatch =    3.302919
              splitnorm =    0.150000
                 energy =   -0.812047
                kinetic =    1.580868
    potential(screened) =   -2.392915
       potential(ionic) =   -6.200698

SPLIT: Orbitals with angular momentum L= 1

SPLIT: Basis orbitals for state 2p

SPLIT: PAO cut-off radius determined from an
SPLIT: energy shift=  0.000735 Ry
Split based on tail norm

   izeta = 1
                 lambda =    1.000000
                     rc =    7.564822
                 energy =   -0.387582
                kinetic =    2.372253
    potential(screened) =   -2.759835
       potential(ionic) =   -6.120604

   izeta = 2
                 rmatch =    4.252389
              splitnorm =    0.150000
                 energy =   -0.314961
                kinetic =    3.225377
    potential(screened) =   -3.540338
       potential(ionic) =   -7.207912
*Note: V_local used for l= 2

** Using vlocal for PAOs with L= 2

POLgen: Perturbative polarization orbital with L=  2

POLgen: Polarization orbital for state 2p
*Note: V_local used for lpol= 2

** Using vlocal for PAOs with L= 2
Split based on tail norm

   izeta = 1
                     rc =    7.564822
                 energy =    0.923681
                kinetic =    1.875515
    potential(screened) =   -0.951834
       potential(ionic) =   -3.587740
atom: Total number of Sankey-type orbitals: 13

atm_pop: Valence configuration (for local Pseudopot. screening):
 2s( 2.00)                                                            
 2p( 2.00)                                                            
 3d( 0.00)                                                            
Vna: chval, zval:    4.00000   4.00000

Vna:  Cut-off radius for the neutral-atom potential:   7.564822
comcore: Pseudo-core radius Rcore=  1.671741

atom: _________________________________________________________________________

<basis_specs>
===============================================================================
H                    Z=   1    Mass=  1.0080        Charge= 0.17977+309
Lmxo=1 Lmxkb= 1    BasisType=split      Semic=F
L=0  Nsemic=0  Cnfigmx=1
          i=1  nzeta=2  polorb=1  (1s)  (to be polarized perturbatively)
            splnorm:   0.15000    
               vcte:    40.000    
               rinn:  -0.90000    
               qcoe:    0.0000    
               qyuk:    0.0000    
               qwid:   0.10000E-01
                rcs:    0.0000      0.0000    
            lambdas:    1.0000      1.0000    
L=1  Nsemic=0  Cnfigmx=2
          i=1  nzeta=0  polorb=0  (2p)  (perturbative polarization orbital) (from 1s)
-------------------------------------------------------------------------------
L=0  Nkbl=1  erefs: 0.17977+309
L=1  Nkbl=1  erefs: 0.17977+309
===============================================================================
</basis_specs>

Using PAO.SplitTailNorm
atom: Called for H                     (Z =   1)
Maximum radius (at nrval) set to   50.00000 8518

read_vps: Pseudopotential generation method:
read_vps: ONCVPSP-3.Hamann's oncvpsp                        
Valence charge in pseudo generation:    1.00000

xc_check: Exchange-correlation functional:
xc_check: GGA Perdew, Burke & Ernzerhof 1996
Got Vlocal (oncv-fit) from psml data
Choosing vlocal chloc cutoff:  1.926399
qtot up to nchloc:    0.99999831
atom: Maximum radius for chlocal:    1.92640
atom: Maximum radius for r*vlocal+2*Zval:    1.92640
Reading KB projs from H psml data
Using scalar-relativistic projectors in PSML file

PSML: Kleinman-Bylander projectors: 
   l= 0   rc=  1.022342   Ekb= -3.402247
   l= 0   rc=  1.022342   Ekb= -1.068968
   l= 1   rc=  0.714575   Ekb= -1.006642

PSML: Total number of  Kleinman-Bylander projectors:   5
atom: -------------------------------------------------------------------------

atom: SANKEY-TYPE ORBITALS:
atom: Selected multiple-zeta basis: split     

SPLIT: Orbitals with angular momentum L= 0

SPLIT: Basis orbitals for state 1s

SPLIT: PAO cut-off radius determined from an
SPLIT: energy shift=  0.000735 Ry
Split based on tail norm

   izeta = 1
                 lambda =    1.000000
                     rc =    7.238756
                 energy =   -0.476315
                kinetic =    0.887622
    potential(screened) =   -1.363936
       potential(ionic) =   -1.882865

   izeta = 2
                 rmatch =    4.044510
              splitnorm =    0.150000
                 energy =   -0.376652
                kinetic =    1.480380
    potential(screened) =   -1.857033
       potential(ionic) =   -2.405174

POLgen: Perturbative polarization orbital with L=  1

POLgen: Polarization orbital for state 1s
Split based on tail norm

   izeta = 1
                     rc =    7.238756
                 energy =    0.508786
                kinetic =    1.081322
    potential(screened) =   -0.572537
       potential(ionic) =   -1.035092
atom: Total number of Sankey-type orbitals:  5

atm_pop: Valence configuration (for local Pseudopot. screening):
 1s( 1.00)                                                            
 2p( 0.00)                                                            
Vna: chval, zval:    1.00000   1.00000

Vna:  Cut-off radius for the neutral-atom potential:   7.238756

atom: _________________________________________________________________________

<basis_specs>
===============================================================================
O                    Z=   8    Mass=  15.999        Charge= 0.17977+309
Lmxo=2 Lmxkb= 2    BasisType=split      Semic=F
L=0  Nsemic=0  Cnfigmx=2
          i=1  nzeta=2  polorb=0  (2s)
            splnorm:   0.15000    
               vcte:    40.000    
               rinn:  -0.90000    
               qcoe:    0.0000    
               qyuk:    0.0000    
               qwid:   0.10000E-01
                rcs:    0.0000      0.0000    
            lambdas:    1.0000      1.0000    
L=1  Nsemic=0  Cnfigmx=2
          i=1  nzeta=2  polorb=1  (2p)  (to be polarized perturbatively)
            splnorm:   0.15000    
               vcte:    40.000    
               rinn:  -0.90000    
               qcoe:    0.0000    
               qyuk:    0.0000    
               qwid:   0.10000E-01
                rcs:    0.0000      0.0000    
            lambdas:    1.0000      1.0000    
L=2  Nsemic=0  Cnfigmx=3
          i=1  nzeta=0  polorb=0  (3d)  (perturbative polarization orbital) (from 2p)
-------------------------------------------------------------------------------
L=0  Nkbl=1  erefs: 0.17977+309
L=1  Nkbl=1  erefs: 0.17977+309
L=2  Nkbl=1  erefs: 0.17977+309
===============================================================================
</basis_specs>

Using PAO.SplitTailNorm
atom: Called for O                     (Z =   8)
Maximum radius (at nrval) set to   50.00000 8518

read_vps: Pseudopotential generation method:
read_vps: ONCVPSP-3.Hamann's oncvpsp                        
Valence charge in pseudo generation:    6.00000

read_vps: Pseudopotential includes a core correction:
read_vps: Pseudo-core for xc-correction

xc_check: Exchange-correlation functional:
xc_check: GGA Perdew, Burke & Ernzerhof 1996
Got Vlocal (oncv-fit) from psml data
Choosing vlocal chloc cutoff:  6.020499
qtot up to nchloc:    6.00001015
atom: Maximum radius for chlocal:    6.02050
atom: Maximum radius for r*vlocal+2*Zval:    6.02050
Reading KB projs from O psml data
Using scalar-relativistic projectors in PSML file

PSML: Kleinman-Bylander projectors: 
   l= 0   rc=  1.372412   Ekb= 12.113471
   l= 0   rc=  1.372412   Ekb=  1.648048
   l= 1   rc=  1.474132   Ekb= -9.434259
   l= 1   rc=  1.474132   Ekb= -2.298541
   l= 2   rc=  1.277664   Ekb= -2.663910

PSML: Total number of  Kleinman-Bylander projectors:  13
atom: -------------------------------------------------------------------------

atom: SANKEY-TYPE ORBITALS:
atom: Selected multiple-zeta basis: split     

SPLIT: Orbitals with angular momentum L= 0

SPLIT: Basis orbitals for state 2s

SPLIT: PAO cut-off radius determined from an
SPLIT: energy shift=  0.000735 Ry
Split based on tail norm

   izeta = 1
                 lambda =    1.000000
                     rc =    4.566021
                 energy =   -1.760280
                kinetic =    1.535743
    potential(screened) =   -3.296022
       potential(ionic) =  -11.142033

   izeta = 2
                 rmatch =    2.434474
              splitnorm =    0.150000
                 energy =   -1.441584
                kinetic =    2.530209
    potential(screened) =   -3.971793
       potential(ionic) =  -12.502519

SPLIT: Orbitals with angular momentum L= 1

SPLIT: Basis orbitals for state 2p

SPLIT: PAO cut-off radius determined from an
SPLIT: energy shift=  0.000735 Ry
Split based on tail norm

   izeta = 1
                 lambda =    1.000000
                     rc =    5.912921
                 energy =   -0.662875
                kinetic =    4.463269
    potential(screened) =   -5.126144
       potential(ionic) =  -12.659411

   izeta = 2
                 rmatch =    3.103756
              splitnorm =    0.150000
                 energy =   -0.538095
                kinetic =    5.926477
    potential(screened) =   -6.464572
       potential(ionic) =  -14.688886

POLgen: Perturbative polarization orbital with L=  2

POLgen: Polarization orbital for state 2p
Split based on tail norm

   izeta = 1
                     rc =    5.912921
                 energy =    1.865729
                kinetic =    3.536681
    potential(screened) =   -1.670952
       potential(ionic) =   -7.378590
atom: Total number of Sankey-type orbitals: 13

atm_pop: Valence configuration (for local Pseudopot. screening):
 2s( 2.00)                                                            
 2p( 4.00)                                                            
 3d( 0.00)                                                            
Vna: chval, zval:    6.00000   6.00000

Vna:  Cut-off radius for the neutral-atom potential:   5.912921
comcore: Pseudo-core radius Rcore=  1.354557

atom: _________________________________________________________________________

prinput: Basis input 

PAO.BasisType split     

%block ChemicalSpeciesLabel
    1    7 N                       # Species index, atomic number, species label
    2    6 C                       # Species index, atomic number, species label
    3    1 H                       # Species index, atomic number, species label
    4    8 O                       # Species index, atomic number, species label
%endblock ChemicalSpeciesLabel

%block PAO.Basis                 # Define Basis set
# WARNING: This information might be incomplete!
N                     2                    # Species label, number of l-shells
 n=2   0   2                         # n, l, Nzeta 
   5.129      2.799   
   1.000      1.000   
 n=2   1   2 P   1                   # n, l, Nzeta, Polarization, NzetaPol
   6.615      3.582   
   1.000      1.000   
C                     2                    # Species label, number of l-shells
 n=2   0   2                         # n, l, Nzeta 
   5.866      3.303   
   1.000      1.000   
 n=2   1   2 P   1                   # n, l, Nzeta, Polarization, NzetaPol
   7.565      4.252   
   1.000      1.000   
H                     1                    # Species label, number of l-shells
 n=1   0   2 P   1                   # n, l, Nzeta, Polarization, NzetaPol
   7.239      4.045   
   1.000      1.000   
O                     2                    # Species label, number of l-shells
 n=2   0   2                         # n, l, Nzeta 
   4.566      2.434   
   1.000      1.000   
 n=2   1   2 P   1                   # n, l, Nzeta, Polarization, NzetaPol
   5.913      3.104   
   1.000      1.000   
%endblock PAO.Basis

prinput: ----------------------------------------------------------------------

Dumping basis to NetCDF file N.ion.nc
Dumping basis to NetCDF file C.ion.nc
Dumping basis to NetCDF file H.ion.nc
Dumping basis to NetCDF file O.ion.nc
coor:   Atomic-coordinates input format  =     Cartesian coordinates
coor:                                          (in Angstroms)

siesta: Atomic coordinates (Bohr) and species
siesta:     -0.06431   0.24341  -0.27603  1        1
siesta:     -2.75762   0.06276  -0.18242  2        2
siesta:     -4.06798   2.51793  -0.43422  2        3
siesta:     -2.72712   4.64313   0.10441  2        4
siesta:     -0.15141   4.58337   0.75083  1        5
siesta:      1.35828   2.43761   0.10763  2        6
siesta:     -6.18199   2.50584  -2.36273  2        7
siesta:     -8.16417   2.61785  -1.69898  3        8
siesta:     -5.68421   4.07374  -3.65263  3        9
siesta:     -5.88359   0.69255  -3.39264  3       10
siesta:     -3.56659   6.57320  -0.12266  3       11
siesta:      0.89922   6.13109   1.40227  3       12
siesta:      0.80631  -1.29389  -1.23342  3       13
siesta:      3.72008   2.47111  -0.06366  4       14
siesta:     -3.74944  -2.07461   0.03540  4       15

siesta: System type = molecule  

initatomlists: Number of atoms, orbitals, and projectors:     15   147   112

coxmol: Writing XMOL coordinates into file optimization.xyz                                                                                                                                                                                                                    

siesta: ******************** Simulation parameters ****************************
siesta:
siesta: The following are some of the parameters of the simulation.
siesta: A complete list of the parameters used, including default values,
siesta: can be found in file out.fdf
siesta:
redata: Spin configuration                          = none
redata: Number of spin components                   = 1
redata: Time-Reversal Symmetry                      = T
redata: Spin spiral                                 = F
redata: Long output                                 =   F
redata: Number of Atomic Species                    =        4
redata: Charge density info will appear in .RHO file
redata: Write Mulliken charges (when)               = none
redata: Write Mulliken Pop.                         = NO
redata: Write Hirshfeld charges (when)              = none
redata: Write Voronoi charges (when)                = none
redata: Write spin charge (when)                    = none
redata: Matel table size (NRTAB)                    =     1024
redata: Mesh Cutoff                                 =   300.0000 Ry
redata: Net charge of the system                    =     0.0000 |e|
redata: Min. number of SCF Iter                     =        0
redata: Max. number of SCF Iter                     =     1000
redata: SCF convergence failure will abort job
redata: SCF mix quantity                            = Hamiltonian
redata: Mix DM or H after convergence               =   F
redata: Recompute H after scf cycle                 =   F
redata: Mix DM in first SCF step                    =   T
redata: Write Pulay info on disk                    =   F
redata: New DM Occupancy tolerance                  = 0.000000000001
redata: No kicks to SCF
redata: DM Mixing Weight for Kicks                  =     0.5000
redata: Require Harris convergence for SCF          =   F
redata: Harris energy tolerance for SCF             =     0.000100 eV
redata: Require DM convergence for SCF              =   T
redata: DM tolerance for SCF                        =     0.000100
redata: Require EDM convergence for SCF             =   F
redata: EDM tolerance for SCF                       =     0.001000 eV
redata: Require H convergence for SCF               =   T
redata: Hamiltonian tolerance for SCF               =     0.001000 eV
redata: Require (free) Energy convergence for SCF   =   F
redata: (free) Energy tolerance for SCF             =     0.000100 eV
redata: Using DFT-D3 dispersion                     =   F
redata: Using Saved Data (generic)                  =   F
redata: Use continuation files for DM               =   T
redata: Neglect nonoverlap interactions             =   F
redata: Method of Calculation                       = Diagonalization
redata: Electronic Temperature                      =   300.0000 K
redata: Fix the spin of the system                  =   F
redata: Max. number of TDED Iter                    =        1
redata: Number of TDED substeps                     =        3
redata: Dynamics option                             = CG coord. optimization
redata: Variable cell                               =   F
redata: Use continuation files for CG               =   F
redata: Max atomic displ per move                   =     0.1058 Ang
redata: Maximum number of optimization moves        =       15
redata: Force tolerance                             =     0.0050 eV/Ang
mix.SCF: Pulay mixing                            = Pulay
mix.SCF:    Variant                              = stable
mix.SCF:    History steps                        = 2
mix.SCF:    Linear mixing weight                 =     0.250000
mix.SCF:    Mixing weight                        =     0.250000
mix.SCF:    SVD condition                        = 0.1000E-07
redata: Save all siesta data in one NC              =   F
redata: ***********************************************************************

%block SCF.Mixers
  Pulay
%endblock SCF.Mixers

%block SCF.Mixer.Pulay
  # Mixing method
  method pulay
  variant stable

  # Mixing options
  weight 0.2500
  weight.linear 0.2500
  history 2
%endblock SCF.Mixer.Pulay

DM_history_depth set to one: no extrapolation allowed by default for geometry relaxation
Size of DM history Fstack: 1
Total number of electrons:    48.000000
Total ionic charge:    48.000000

siesta: k-grid: Number of k-points = 1
siesta: k-point is Gamma-only

diag: Algorithm                                     = D&C
diag: Used triangular part                          = Lower
diag: Absolute tolerance                            =  0.100E-15
diag: Orthogonalization factor                      =  0.100E-05
diag: Memory factor                                 =  1.0000


ts: **************************************************************
ts: Save H and S matrices                           =    F
ts: Save TSHS files in MD/FC simulation             =    F
ts: Save DM and EDM matrices                        =    F
ts: Only save the overlap matrix S                  =    F
ts: **************************************************************

************************ Begin: TS CHECKS AND WARNINGS ************************
************************ End: TS CHECKS AND WARNINGS **************************


                     ====================================
                        Begin CG opt. move =      0
                     ====================================

outcell: Unit cell vectors (Ang):
       16.288872    0.000000    0.000000
        0.000000   14.576225    0.000000
        0.000000    0.000000   12.674934

outcell: Cell vector modules (Ang)   :   16.288872   14.576225   12.674934
outcell: Cell angles (23,13,12) (deg):     90.0000     90.0000     90.0000
outcell: Cell volume (Ang**3)        :   3009.4129
<dSpData1D:S at geom step 0
  <sparsity:sparsity for geom step 0
    nrows_g=147 nrows=147 sparsity=.9886 nnzs=21363, refcount: 7>
  <dData1D:(new from dSpData1D) n=21363, refcount: 1>
refcount: 1>
new_DM -- step:     1
Initializing Density Matrix...

Attempting to read DM from file... Failed...
DM filled with atomic data:
<dSpData2D:DM initialized from atoms
  <sparsity:sparsity for geom step 0
    nrows_g=147 nrows=147 sparsity=.9886 nnzs=21363, refcount: 8>
  <dData2D:DM n=21363 m=1, refcount: 1>
refcount: 1>
No. of atoms with KB's overlaping orbs in proc 0. Max # of overlaps:      15     134

InitMesh: MESH = 180 x 160 x 144 = 4147200
InitMesh: Mesh cutoff (required, used) =   300.000   333.006 Ry
New grid distribution [1]: sub = 2

stepf: Fermi-Dirac step function

siesta: Program's energy decomposition (eV):
siesta: Ebs     =      -546.323646
siesta: Eions   =      3810.579487
siesta: Ena     =       842.769701
siesta: Ekin    =      1712.523025
siesta: Enl     =      -259.094405
siesta: Eso     =         0.000000
siesta: Edftu   =         0.000000
siesta: DEna    =      -115.641585
siesta: DUscf   =        18.178809
siesta: DUext   =         0.000000
siesta: Ex      =      -700.520839
siesta: Ec      =       -55.938643
siesta: Exc     =      -756.459482
siesta: EbV     =         0.000000
siesta: eta*DQ  =         0.000000
siesta: Emadel  =         0.000000
siesta: Emeta   =         0.000000
siesta: Emolmec =         0.000000
siesta: Ekinion =         0.000000
siesta: Eharris =     -2349.613520
siesta: Etot    =     -2368.303424
siesta: FreeEng =     -2368.303424

        iscf     Eharris(eV)        E_KS(eV)     FreeEng(eV)     dDmax    Ef(eV) dHmax(eV)
   scf:    1    -2349.613520    -2368.303424    -2368.303424  1.932523 -7.606803 11.016431
timer: Routine,Calls,Time,% = IterSCF        1       1.587  18.84
   scf:    2    -2378.071114    -2374.425186    -2374.425186  0.192400 -6.268091  4.668521
   scf:    3    -2375.922473    -2375.419508    -2375.419508  0.135392 -5.065327  0.993792
   scf:    4    -2375.486514    -2375.459598    -2375.459598  0.032927 -4.719838  0.367643
   scf:    5    -2375.482882    -2375.472318    -2375.472318  0.010119 -4.635715  0.201055
   scf:    6    -2375.479183    -2375.476311    -2375.476311  0.009364 -4.575661  0.056218
   scf:    7    -2375.476826    -2375.476591    -2375.476591  0.002767 -4.563762  0.019020
   scf:    8    -2375.476707    -2375.476655    -2375.476655  0.001738 -4.556322  0.006991
   scf:    9    -2375.476679    -2375.476668    -2375.476668  0.000638 -4.553379  0.005150
   scf:   10    -2375.476677    -2375.476673    -2375.476673  0.000351 -4.551796  0.004019
   scf:   11    -2375.476675    -2375.476674    -2375.476674  0.000097 -4.551534  0.002508
   scf:   12    -2375.476674    -2375.476674    -2375.476674  0.000091 -4.551547  0.001109
   scf:   13    -2375.476674    -2375.476674    -2375.476674  0.000052 -4.551705  0.000515

SCF Convergence by DM+H criterion
max |DM_out - DM_in|         :     0.0000515641
max |H_out - H_in|      (eV) :     0.0005147100
SCF cycle converged after 13 iterations

Using DM_out to compute the final energy and forces
No. of atoms with KB's overlaping orbs in proc 0. Max # of overlaps:      15     134

siesta: E_KS(eV) =            -2375.4767

siesta: E_KS - E_eggbox =     -2375.4767

siesta: Atomic forces (eV/Ang):
----------------------------------------
   Tot    0.006083    0.003136   -0.000140
----------------------------------------
   Max    1.357846
   Res    0.529829    sqrt( Sum f_i^2 / 3N )
----------------------------------------
   Max    1.357846    constrained

Stress tensor Voigt[x,y,z,yz,xz,xy] (kbar):       -0.39        0.12       -0.21        0.42       -0.88       -0.22
(Free)E + p*V (eV/cell)    -2375.1770
Target enthalpy (eV/cell)    -2375.4767

                     ====================================
                        Begin CG opt. move =      1
                     ====================================

outcell: Unit cell vectors (Ang):
       16.288872    0.000000    0.000000
        0.000000   14.576225    0.000000
        0.000000    0.000000   12.674934

outcell: Cell vector modules (Ang)   :   16.288872   14.576225   12.674934
outcell: Cell angles (23,13,12) (deg):     90.0000     90.0000     90.0000
outcell: Cell volume (Ang**3)        :   3009.4129
<dSpData1D:S at geom step 1
  <sparsity:sparsity for geom step 1
    nrows_g=147 nrows=147 sparsity=.9892 nnzs=21375, refcount: 7>
  <dData1D:(new from dSpData1D) n=21375, refcount: 1>
refcount: 1>
new_DM -- step:     2
Re-using DM from previous geometries...
Number of DMs in history: 1
 DM extrapolation coefficients: 
1   1.00000
New DM after history re-use:
<dSpData2D:SpM extrapolated using coords
  <sparsity:sparsity for geom step 1
    nrows_g=147 nrows=147 sparsity=.9892 nnzs=21375, refcount: 9>
  <dData2D:(temp array for extrapolation) n=21375 m=1, refcount: 1>
refcount: 1>
Note: For starting DM, Qtot, Tr[D*S] =         48.00000000         48.04817136
No. of atoms with KB's overlaping orbs in proc 0. Max # of overlaps:      15     134

InitMesh: MESH = 180 x 160 x 144 = 4147200
InitMesh: Mesh cutoff (required, used) =   300.000   333.006 Ry
New grid distribution [1]: sub = 2

        iscf     Eharris(eV)        E_KS(eV)     FreeEng(eV)     dDmax    Ef(eV) dHmax(eV)
   scf:    1    -2373.541902    -2375.124606    -2375.124606  0.163700 -4.807948  2.270030
   scf:    2    -2370.365518    -2373.817404    -2373.817404  0.167766 -3.875011  5.734593
   scf:    3    -2375.788922    -2375.367903    -2375.367903  0.123962 -5.075460  0.128567
   scf:    4    -2375.371002    -2375.369635    -2375.369635  0.003766 -5.090002  0.078992
   scf:    5    -2375.370713    -2375.370248    -2375.370248  0.003426 -5.105522  0.023378
   scf:    6    -2375.370368    -2375.370314    -2375.370314  0.001490 -5.110382  0.009770
   scf:    7    -2375.370332    -2375.370324    -2375.370324  0.000663 -5.111936  0.004261
   scf:    8    -2375.370328    -2375.370326    -2375.370326  0.000335 -5.112326  0.002009
   scf:    9    -2375.370327    -2375.370327    -2375.370327  0.000250 -5.112466  0.000759
   scf:   10    -2375.370327    -2375.370327    -2375.370327  0.000072 -5.112425  0.000518

SCF Convergence by DM+H criterion
max |DM_out - DM_in|         :     0.0000722210
max |H_out - H_in|      (eV) :     0.0005182040
SCF cycle converged after 10 iterations

Using DM_out to compute the final energy and forces
No. of atoms with KB's overlaping orbs in proc 0. Max # of overlaps:      15     134

siesta: E_KS(eV) =            -2375.3703

siesta: Atomic forces (eV/Ang):
----------------------------------------
   Tot   -0.001455   -0.002269   -0.000358
----------------------------------------
   Max    3.236041
   Res    1.179824    sqrt( Sum f_i^2 / 3N )
----------------------------------------
   Max    3.236041    constrained

Stress tensor Voigt[x,y,z,yz,xz,xy] (kbar):       -2.95       -0.59       -0.47        0.28       -0.52        0.43
(Free)E + p*V (eV/cell)    -2372.8639
Target enthalpy (eV/cell)    -2375.3703

                     ====================================
                        Begin CG opt. move =      2
                     ====================================

outcell: Unit cell vectors (Ang):
       16.288872    0.000000    0.000000
        0.000000   14.576225    0.000000
        0.000000    0.000000   12.674934

outcell: Cell vector modules (Ang)   :   16.288872   14.576225   12.674934
outcell: Cell angles (23,13,12) (deg):     90.0000     90.0000     90.0000
outcell: Cell volume (Ang**3)        :   3009.4129
<dSpData1D:S at geom step 2
  <sparsity:sparsity for geom step 2
    nrows_g=147 nrows=147 sparsity=.9892 nnzs=21375, refcount: 7>
  <dData1D:(new from dSpData1D) n=21375, refcount: 1>
refcount: 1>
new_DM -- step:     3
Re-using DM from previous geometries...
Number of DMs in history: 1
 DM extrapolation coefficients: 
1   1.00000
New DM after history re-use:
<dSpData2D:SpM extrapolated using coords
  <sparsity:sparsity for geom step 2
    nrows_g=147 nrows=147 sparsity=.9892 nnzs=21375, refcount: 9>
  <dData2D:(temp array for extrapolation) n=21375 m=1, refcount: 1>
refcount: 1>
No. of atoms with KB's overlaping orbs in proc 0. Max # of overlaps:      15     134

InitMesh: MESH = 180 x 160 x 144 = 4147200
InitMesh: Mesh cutoff (required, used) =   300.000   333.006 Ry
New grid distribution [1]: sub = 2

        iscf     Eharris(eV)        E_KS(eV)     FreeEng(eV)     dDmax    Ef(eV) dHmax(eV)
   scf:    1    -2375.883040    -2375.452576    -2375.452576  0.102648 -4.965791  1.406483
   scf:    2    -2373.416967    -2374.885719    -2374.885719  0.107853 -4.570025  3.809857
   scf:    3    -2375.706502    -2375.549028    -2375.549028  0.077862 -4.796867  0.089798
   scf:    4    -2375.550243    -2375.549719    -2375.549719  0.002283 -4.785710  0.046156
   scf:    5    -2375.550092    -2375.549924    -2375.549924  0.002057 -4.779600  0.018260
   scf:    6    -2375.549991    -2375.549962    -2375.549962  0.001344 -4.776269  0.006081
   scf:    7    -2375.549967    -2375.549965    -2375.549965  0.000394 -4.775540  0.003082
   scf:    8    -2375.549967    -2375.549966    -2375.549966  0.000286 -4.775178  0.001260
   scf:    9    -2375.549966    -2375.549966    -2375.549966  0.000137 -4.775105  0.000500
   scf:   10    -2375.549966    -2375.549966    -2375.549966  0.000062 -4.775117  0.000362

SCF Convergence by DM+H criterion
max |DM_out - DM_in|         :     0.0000616495
max |H_out - H_in|      (eV) :     0.0003623446
SCF cycle converged after 10 iterations

Using DM_out to compute the final energy and forces
No. of atoms with KB's overlaping orbs in proc 0. Max # of overlaps:      15     134

siesta: E_KS(eV) =            -2375.5500

siesta: Atomic forces (eV/Ang):
----------------------------------------
   Tot    0.003285    0.001615   -0.000378
----------------------------------------
   Max    0.786252
   Res    0.315888    sqrt( Sum f_i^2 / 3N )
----------------------------------------
   Max    0.786252    constrained

Stress tensor Voigt[x,y,z,yz,xz,xy] (kbar):       -1.23        0.00       -0.31        0.39       -0.74        0.10
(Free)E + p*V (eV/cell)    -2374.5905
Target enthalpy (eV/cell)    -2375.5500

cgvc: Finished line minimization    1.  Mean atomic displacement =    0.0201

                     ====================================
                        Begin CG opt. move =      3
                     ====================================

outcell: Unit cell vectors (Ang):
       16.288872    0.000000    0.000000
        0.000000   14.576225    0.000000
        0.000000    0.000000   12.674934

outcell: Cell vector modules (Ang)   :   16.288872   14.576225   12.674934
outcell: Cell angles (23,13,12) (deg):     90.0000     90.0000     90.0000
outcell: Cell volume (Ang**3)        :   3009.4129
<dSpData1D:S at geom step 3
  <sparsity:sparsity for geom step 3
    nrows_g=147 nrows=147 sparsity=.9892 nnzs=21375, refcount: 7>
  <dData1D:(new from dSpData1D) n=21375, refcount: 1>
refcount: 1>
new_DM -- step:     4
Re-using DM from previous geometries...
Number of DMs in history: 1
 DM extrapolation coefficients: 
1   1.00000
New DM after history re-use:
<dSpData2D:SpM extrapolated using coords
  <sparsity:sparsity for geom step 3
    nrows_g=147 nrows=147 sparsity=.9892 nnzs=21375, refcount: 9>
  <dData2D:(temp array for extrapolation) n=21375 m=1, refcount: 1>
refcount: 1>
No. of atoms with KB's overlaping orbs in proc 0. Max # of overlaps:      15     134

InitMesh: MESH = 180 x 160 x 144 = 4147200
InitMesh: Mesh cutoff (required, used) =   300.000   333.006 Ry
New grid distribution [1]: sub = 2

        iscf     Eharris(eV)        E_KS(eV)     FreeEng(eV)     dDmax    Ef(eV) dHmax(eV)
   scf:    1    -2375.561495    -2375.579900    -2375.579900  0.036321 -4.656095  0.717766
   scf:    2    -2374.972298    -2375.405803    -2375.405803  0.046691 -4.787025  1.830980
   scf:    3    -2375.646503    -2375.601754    -2375.601754  0.035760 -4.690577  0.038954
   scf:    4    -2375.601897    -2375.601833    -2375.601833  0.000538 -4.692624  0.019788
   scf:    5    -2375.601890    -2375.601864    -2375.601864  0.000628 -4.693553  0.006861
   scf:    6    -2375.601873    -2375.601869    -2375.601869  0.000315 -4.693721  0.001950
   scf:    7    -2375.601870    -2375.601870    -2375.601870  0.000130 -4.693776  0.000538
   scf:    8    -2375.601870    -2375.601870    -2375.601870  0.000066 -4.693832  0.000322

SCF Convergence by DM+H criterion
max |DM_out - DM_in|         :     0.0000663454
max |H_out - H_in|      (eV) :     0.0003223621
SCF cycle converged after 8 iterations

Using DM_out to compute the final energy and forces
No. of atoms with KB's overlaping orbs in proc 0. Max # of overlaps:      15     134

siesta: E_KS(eV) =            -2375.6019

siesta: Atomic forces (eV/Ang):
----------------------------------------
   Tot    0.003789    0.000573   -0.000552
----------------------------------------
   Max    0.483648
   Res    0.203546    sqrt( Sum f_i^2 / 3N )
----------------------------------------
   Max    0.483648    constrained

Stress tensor Voigt[x,y,z,yz,xz,xy] (kbar):       -0.99        0.04       -0.17        0.09       -0.64        0.21
(Free)E + p*V (eV/cell)    -2374.9056
Target enthalpy (eV/cell)    -2375.6019

                     ====================================
                        Begin CG opt. move =      4
                     ====================================

outcell: Unit cell vectors (Ang):
       16.288872    0.000000    0.000000
        0.000000   14.576225    0.000000
        0.000000    0.000000   12.674934

outcell: Cell vector modules (Ang)   :   16.288872   14.576225   12.674934
outcell: Cell angles (23,13,12) (deg):     90.0000     90.0000     90.0000
outcell: Cell volume (Ang**3)        :   3009.4129
<dSpData1D:S at geom step 4
  <sparsity:sparsity for geom step 4
    nrows_g=147 nrows=147 sparsity=.9892 nnzs=21375, refcount: 7>
  <dData1D:(new from dSpData1D) n=21375, refcount: 1>
refcount: 1>
new_DM -- step:     5
Re-using DM from previous geometries...
Number of DMs in history: 1
 DM extrapolation coefficients: 
1   1.00000
New DM after history re-use:
<dSpData2D:SpM extrapolated using coords
  <sparsity:sparsity for geom step 4
    nrows_g=147 nrows=147 sparsity=.9892 nnzs=21375, refcount: 9>
  <dData2D:(temp array for extrapolation) n=21375 m=1, refcount: 1>
refcount: 1>
No. of atoms with KB's overlaping orbs in proc 0. Max # of overlaps:      15     134

InitMesh: MESH = 180 x 160 x 144 = 4147200
InitMesh: Mesh cutoff (required, used) =   300.000   333.006 Ry
New grid distribution [1]: sub = 2

        iscf     Eharris(eV)        E_KS(eV)     FreeEng(eV)     dDmax    Ef(eV) dHmax(eV)
   scf:    1    -2375.443104    -2375.533242    -2375.533242  0.055178 -4.522014  1.124083
   scf:    2    -2374.015309    -2375.097468    -2375.097468  0.075963 -4.816227  2.835940
   scf:    3    -2375.696138    -2375.587180    -2375.587180  0.058936 -4.594106  0.061088
   scf:    4    -2375.587579    -2375.587406    -2375.587406  0.001046 -4.598543  0.029634
   scf:    5    -2375.587551    -2375.587485    -2375.587485  0.000964 -4.600676  0.011232
   scf:    6    -2375.587509    -2375.587498    -2375.587498  0.000540 -4.601337  0.003070
   scf:    7    -2375.587501    -2375.587500    -2375.587500  0.000188 -4.601488  0.000927
   scf:    8    -2375.587500    -2375.587500    -2375.587500  0.000118 -4.601625  0.000499
   scf:    9    -2375.587500    -2375.587500    -2375.587500  0.000041 -4.601683  0.000336

SCF Convergence by DM+H criterion
max |DM_out - DM_in|         :     0.0000409572
max |H_out - H_in|      (eV) :     0.0003357850
SCF cycle converged after 9 iterations

Using DM_out to compute the final energy and forces
No. of atoms with KB's overlaping orbs in proc 0. Max # of overlaps:      15     134

siesta: E_KS(eV) =            -2375.5875

siesta: Atomic forces (eV/Ang):
----------------------------------------
   Tot    0.003682   -0.003190    0.000857
----------------------------------------
   Max    1.432710
   Res    0.477307    sqrt( Sum f_i^2 / 3N )
----------------------------------------
   Max    1.432710    constrained

Stress tensor Voigt[x,y,z,yz,xz,xy] (kbar):       -0.66        0.03        0.05       -0.40       -0.45        0.42
(Free)E + p*V (eV/cell)    -2375.2291
Target enthalpy (eV/cell)    -2375.5875

                     ====================================
                        Begin CG opt. move =      5
                     ====================================

outcell: Unit cell vectors (Ang):
       16.288872    0.000000    0.000000
        0.000000   14.576225    0.000000
        0.000000    0.000000   12.674934

outcell: Cell vector modules (Ang)   :   16.288872   14.576225   12.674934
outcell: Cell angles (23,13,12) (deg):     90.0000     90.0000     90.0000
outcell: Cell volume (Ang**3)        :   3009.4129
<dSpData1D:S at geom step 5
  <sparsity:sparsity for geom step 5
    nrows_g=147 nrows=147 sparsity=.9892 nnzs=21375, refcount: 7>
  <dData1D:(new from dSpData1D) n=21375, refcount: 1>
refcount: 1>
new_DM -- step:     6
Re-using DM from previous geometries...
Number of DMs in history: 1
 DM extrapolation coefficients: 
1   1.00000
New DM after history re-use:
<dSpData2D:SpM extrapolated using coords
  <sparsity:sparsity for geom step 5
    nrows_g=147 nrows=147 sparsity=.9892 nnzs=21375, refcount: 9>
  <dData2D:(temp array for extrapolation) n=21375 m=1, refcount: 1>
refcount: 1>
No. of atoms with KB's overlaping orbs in proc 0. Max # of overlaps:      15     134

InitMesh: MESH = 180 x 160 x 144 = 4147200
InitMesh: Mesh cutoff (required, used) =   300.000   333.006 Ry
New grid distribution [1]: sub = 2

        iscf     Eharris(eV)        E_KS(eV)     FreeEng(eV)     dDmax    Ef(eV) dHmax(eV)
   scf:    1    -2375.535870    -2375.589489    -2375.589489  0.034977 -4.704572  0.725236
   scf:    2    -2375.031268    -2375.430354    -2375.430354  0.043030 -4.576595  1.826705
   scf:    3    -2375.653019    -2375.610453    -2375.610453  0.031481 -4.658976  0.041813
   scf:    4    -2375.610610    -2375.610541    -2375.610541  0.000633 -4.655439  0.021085
   scf:    5    -2375.610596    -2375.610571    -2375.610571  0.000577 -4.653778  0.007097
   scf:    6    -2375.610581    -2375.610576    -2375.610576  0.000281 -4.653477  0.002525
   scf:    7    -2375.610578    -2375.610577    -2375.610577  0.000153 -4.653339  0.000463
   scf:    8    -2375.610577    -2375.610577    -2375.610577  0.000045 -4.653284  0.000290

SCF Convergence by DM+H criterion
max |DM_out - DM_in|         :     0.0000446747
max |H_out - H_in|      (eV) :     0.0002898079
SCF cycle converged after 8 iterations

Using DM_out to compute the final energy and forces
No. of atoms with KB's overlaping orbs in proc 0. Max # of overlaps:      15     134

siesta: E_KS(eV) =            -2375.6106

siesta: Atomic forces (eV/Ang):
----------------------------------------
   Tot    0.004135   -0.000227   -0.000254
----------------------------------------
   Max    0.668233
   Res    0.267092    sqrt( Sum f_i^2 / 3N )
----------------------------------------
   Max    0.668233    constrained

Stress tensor Voigt[x,y,z,yz,xz,xy] (kbar):       -0.85        0.05       -0.09       -0.10       -0.57        0.29
(Free)E + p*V (eV/cell)    -2375.0536
Target enthalpy (eV/cell)    -2375.6106

cgvc: Finished line minimization    2.  Mean atomic displacement =    0.0323

                     ====================================
                        Begin CG opt. move =      6
                     ====================================

outcell: Unit cell vectors (Ang):
       16.288872    0.000000    0.000000
        0.000000   14.576225    0.000000
        0.000000    0.000000   12.674934

outcell: Cell vector modules (Ang)   :   16.288872   14.576225   12.674934
outcell: Cell angles (23,13,12) (deg):     90.0000     90.0000     90.0000
outcell: Cell volume (Ang**3)        :   3009.4129
<dSpData1D:S at geom step 6
  <sparsity:sparsity for geom step 6
    nrows_g=147 nrows=147 sparsity=.9892 nnzs=21375, refcount: 7>
  <dData1D:(new from dSpData1D) n=21375, refcount: 1>
refcount: 1>
new_DM -- step:     7
Re-using DM from previous geometries...
Number of DMs in history: 1
 DM extrapolation coefficients: 
1   1.00000
New DM after history re-use:
<dSpData2D:SpM extrapolated using coords
  <sparsity:sparsity for geom step 6
    nrows_g=147 nrows=147 sparsity=.9892 nnzs=21375, refcount: 9>
  <dData2D:(temp array for extrapolation) n=21375 m=1, refcount: 1>
refcount: 1>
No. of atoms with KB's overlaping orbs in proc 0. Max # of overlaps:      15     134

InitMesh: MESH = 180 x 160 x 144 = 4147200
InitMesh: Mesh cutoff (required, used) =   300.000   333.006 Ry
New grid distribution [1]: sub = 2

        iscf     Eharris(eV)        E_KS(eV)     FreeEng(eV)     dDmax    Ef(eV) dHmax(eV)
   scf:    1    -2375.545677    -2375.611900    -2375.611900  0.048923 -4.430736  0.679856
   scf:    2    -2375.174046    -2375.490291    -2375.490291  0.060850 -4.691647  1.822217
   scf:    3    -2375.667724    -2375.632905    -2375.632905  0.044136 -4.506867  0.040193
   scf:    4    -2375.633307    -2375.633127    -2375.633127  0.001014 -4.514218  0.022202
   scf:    5    -2375.633253    -2375.633199    -2375.633199  0.001017 -4.518690  0.008235
   scf:    6    -2375.633214    -2375.633207    -2375.633207  0.000438 -4.518804  0.004199
   scf:    7    -2375.633212    -2375.633210    -2375.633210  0.000497 -4.518692  0.000891
   scf:    8    -2375.633210    -2375.633210    -2375.633210  0.000082 -4.518607  0.000643

SCF Convergence by DM+H criterion
max |DM_out - DM_in|         :     0.0000824469
max |H_out - H_in|      (eV) :     0.0006427213
SCF cycle converged after 8 iterations

Using DM_out to compute the final energy and forces
No. of atoms with KB's overlaping orbs in proc 0. Max # of overlaps:      15     134

siesta: E_KS(eV) =            -2375.6332

siesta: Atomic forces (eV/Ang):
----------------------------------------
   Tot    0.002947   -0.002284    0.002044
----------------------------------------
   Max    0.925449
   Res    0.358807    sqrt( Sum f_i^2 / 3N )
----------------------------------------
   Max    0.925449    constrained

Stress tensor Voigt[x,y,z,yz,xz,xy] (kbar):       -1.66       -0.22        0.21       -0.10       -0.50       -0.11
(Free)E + p*V (eV/cell)    -2374.5850
Target enthalpy (eV/cell)    -2375.6332

                     ====================================
                        Begin CG opt. move =      7
                     ====================================

outcell: Unit cell vectors (Ang):
       16.288872    0.000000    0.000000
        0.000000   14.576225    0.000000
        0.000000    0.000000   12.674934

outcell: Cell vector modules (Ang)   :   16.288872   14.576225   12.674934
outcell: Cell angles (23,13,12) (deg):     90.0000     90.0000     90.0000
outcell: Cell volume (Ang**3)        :   3009.4129
<dSpData1D:S at geom step 7
  <sparsity:sparsity for geom step 7
    nrows_g=147 nrows=147 sparsity=.9892 nnzs=21375, refcount: 7>
  <dData1D:(new from dSpData1D) n=21375, refcount: 1>
refcount: 1>
new_DM -- step:     8
Re-using DM from previous geometries...
Number of DMs in history: 1
 DM extrapolation coefficients: 
1   1.00000
New DM after history re-use:
<dSpData2D:SpM extrapolated using coords
  <sparsity:sparsity for geom step 7
    nrows_g=147 nrows=147 sparsity=.9892 nnzs=21375, refcount: 9>
  <dData2D:(temp array for extrapolation) n=21375 m=1, refcount: 1>
refcount: 1>
No. of atoms with KB's overlaping orbs in proc 0. Max # of overlaps:      15     134

InitMesh: MESH = 180 x 160 x 144 = 4147200
InitMesh: Mesh cutoff (required, used) =   300.000   333.006 Ry
New grid distribution [1]: sub = 2

        iscf     Eharris(eV)        E_KS(eV)     FreeEng(eV)     dDmax    Ef(eV) dHmax(eV)
   scf:    1    -2375.641789    -2375.637251    -2375.637251  0.015725 -4.587599  0.222623
   scf:    2    -2375.589061    -2375.623813    -2375.623813  0.019968 -4.514363  0.602619
   scf:    3    -2375.643255    -2375.639502    -2375.639502  0.014429 -4.561479  0.012856
   scf:    4    -2375.639541    -2375.639524    -2375.639524  0.000309 -4.559153  0.007041
   scf:    5    -2375.639536    -2375.639531    -2375.639531  0.000329 -4.557759  0.002661
   scf:    6    -2375.639532    -2375.639532    -2375.639532  0.000146 -4.557728  0.001351
   scf:    7    -2375.639532    -2375.639532    -2375.639532  0.000164 -4.557762  0.000281
   scf:    8    -2375.639532    -2375.639532    -2375.639532  0.000027 -4.557788  0.000202

SCF Convergence by DM+H criterion
max |DM_out - DM_in|         :     0.0000268994
max |H_out - H_in|      (eV) :     0.0002020500
SCF cycle converged after 8 iterations

Using DM_out to compute the final energy and forces
No. of atoms with KB's overlaping orbs in proc 0. Max # of overlaps:      15     134

siesta: E_KS(eV) =            -2375.6395

siesta: Atomic forces (eV/Ang):
----------------------------------------
   Tot    0.003357   -0.001658    0.001110
----------------------------------------
   Max    0.462887
   Res    0.228324    sqrt( Sum f_i^2 / 3N )
----------------------------------------
   Max    0.462887    constrained

Stress tensor Voigt[x,y,z,yz,xz,xy] (kbar):       -1.39       -0.13        0.12       -0.09       -0.52        0.02
(Free)E + p*V (eV/cell)    -2374.7597
Target enthalpy (eV/cell)    -2375.6395

cgvc: Finished line minimization    3.  Mean atomic displacement =    0.0220

                     ====================================
                        Begin CG opt. move =      8
                     ====================================

outcell: Unit cell vectors (Ang):
       16.288872    0.000000    0.000000
        0.000000   14.576225    0.000000
        0.000000    0.000000   12.674934

outcell: Cell vector modules (Ang)   :   16.288872   14.576225   12.674934
outcell: Cell angles (23,13,12) (deg):     90.0000     90.0000     90.0000
outcell: Cell volume (Ang**3)        :   3009.4129
<dSpData1D:S at geom step 8
  <sparsity:sparsity for geom step 8
    nrows_g=147 nrows=147 sparsity=.9892 nnzs=21375, refcount: 7>
  <dData1D:(new from dSpData1D) n=21375, refcount: 1>
refcount: 1>
new_DM -- step:     9
Re-using DM from previous geometries...
Number of DMs in history: 1
 DM extrapolation coefficients: 
1   1.00000
New DM after history re-use:
<dSpData2D:SpM extrapolated using coords
  <sparsity:sparsity for geom step 8
    nrows_g=147 nrows=147 sparsity=.9892 nnzs=21375, refcount: 9>
  <dData2D:(temp array for extrapolation) n=21375 m=1, refcount: 1>
refcount: 1>
No. of atoms with KB's overlaping orbs in proc 0. Max # of overlaps:      15     134

InitMesh: MESH = 180 x 160 x 144 = 4147200
InitMesh: Mesh cutoff (required, used) =   300.000   333.006 Ry
New grid distribution [1]: sub = 2

        iscf     Eharris(eV)        E_KS(eV)     FreeEng(eV)     dDmax    Ef(eV) dHmax(eV)
   scf:    1    -2375.764805    -2375.672048    -2375.672048  0.021459 -4.612868  0.307933
   scf:    2    -2375.610630    -2375.655661    -2375.655661  0.012838 -4.514923  0.691102
   scf:    3    -2375.681498    -2375.675887    -2375.675887  0.009228 -4.577325  0.016604
   scf:    4    -2375.675949    -2375.675920    -2375.675920  0.000198 -4.575396  0.008872
   scf:    5    -2375.675948    -2375.675936    -2375.675936  0.000316 -4.573966  0.001673
   scf:    6    -2375.675938    -2375.675937    -2375.675937  0.000107 -4.573880  0.000711
   scf:    7    -2375.675937    -2375.675937    -2375.675937  0.000070 -4.573880  0.000386

SCF Convergence by DM+H criterion
max |DM_out - DM_in|         :     0.0000700500
max |H_out - H_in|      (eV) :     0.0003857228
SCF cycle converged after 7 iterations

Using DM_out to compute the final energy and forces
No. of atoms with KB's overlaping orbs in proc 0. Max # of overlaps:      15     134

siesta: E_KS(eV) =            -2375.6759

siesta: Atomic forces (eV/Ang):
----------------------------------------
   Tot    0.004962   -0.002268    0.003210
----------------------------------------
   Max    0.429327
   Res    0.190716    sqrt( Sum f_i^2 / 3N )
----------------------------------------
   Max    0.429327    constrained

Stress tensor Voigt[x,y,z,yz,xz,xy] (kbar):       -1.07       -0.11        0.14       -0.01       -0.55        0.15
(Free)E + p*V (eV/cell)    -2375.0263
Target enthalpy (eV/cell)    -2375.6759

                     ====================================
                        Begin CG opt. move =      9
                     ====================================

outcell: Unit cell vectors (Ang):
       16.288872    0.000000    0.000000
        0.000000   14.576225    0.000000
        0.000000    0.000000   12.674934

outcell: Cell vector modules (Ang)   :   16.288872   14.576225   12.674934
outcell: Cell angles (23,13,12) (deg):     90.0000     90.0000     90.0000
outcell: Cell volume (Ang**3)        :   3009.4129
<dSpData1D:S at geom step 9
  <sparsity:sparsity for geom step 9
    nrows_g=147 nrows=147 sparsity=.9892 nnzs=21375, refcount: 7>
  <dData1D:(new from dSpData1D) n=21375, refcount: 1>
refcount: 1>
new_DM -- step:    10
Re-using DM from previous geometries...
Number of DMs in history: 1
 DM extrapolation coefficients: 
1   1.00000
New DM after history re-use:
<dSpData2D:SpM extrapolated using coords
  <sparsity:sparsity for geom step 9
    nrows_g=147 nrows=147 sparsity=.9892 nnzs=21375, refcount: 9>
  <dData2D:(temp array for extrapolation) n=21375 m=1, refcount: 1>
refcount: 1>
No. of atoms with KB's overlaping orbs in proc 0. Max # of overlaps:      15     134

InitMesh: MESH = 180 x 160 x 144 = 4147200
InitMesh: Mesh cutoff (required, used) =   300.000   333.006 Ry
New grid distribution [1]: sub = 2

        iscf     Eharris(eV)        E_KS(eV)     FreeEng(eV)     dDmax    Ef(eV) dHmax(eV)
   scf:    1    -2375.832477    -2375.690691    -2375.690691  0.032787 -4.661085  0.516560
   scf:    2    -2375.513366    -2375.642851    -2375.642851  0.021726 -4.527581  1.212434
   scf:    3    -2375.716749    -2375.701047    -2375.701047  0.015735 -4.611888  0.028182
   scf:    4    -2375.701208    -2375.701133    -2375.701133  0.000313 -4.609177  0.015095
   scf:    5    -2375.701205    -2375.701173    -2375.701173  0.000461 -4.607310  0.003182
   scf:    6    -2375.701179    -2375.701176    -2375.701176  0.000176 -4.607139  0.001069
   scf:    7    -2375.701177    -2375.701177    -2375.701177  0.000093 -4.607152  0.000661

SCF Convergence by DM+H criterion
max |DM_out - DM_in|         :     0.0000933490
max |H_out - H_in|      (eV) :     0.0006605173
SCF cycle converged after 7 iterations

Using DM_out to compute the final energy and forces
No. of atoms with KB's overlaping orbs in proc 0. Max # of overlaps:      15     134

siesta: E_KS(eV) =            -2375.7012

siesta: Atomic forces (eV/Ang):
----------------------------------------
   Tot    0.004770   -0.004158    0.002497
----------------------------------------
   Max    0.905301
   Res    0.314428    sqrt( Sum f_i^2 / 3N )
----------------------------------------
   Max    0.905301    constrained

Stress tensor Voigt[x,y,z,yz,xz,xy] (kbar):       -0.56       -0.06        0.18        0.14       -0.60        0.36
(Free)E + p*V (eV/cell)    -2375.4290
Target enthalpy (eV/cell)    -2375.7012

                     ====================================
                        Begin CG opt. move =     10
                     ====================================

outcell: Unit cell vectors (Ang):
       16.288872    0.000000    0.000000
        0.000000   14.576225    0.000000
        0.000000    0.000000   12.674934

outcell: Cell vector modules (Ang)   :   16.288872   14.576225   12.674934
outcell: Cell angles (23,13,12) (deg):     90.0000     90.0000     90.0000
outcell: Cell volume (Ang**3)        :   3009.4129
<dSpData1D:S at geom step 10
  <sparsity:sparsity for geom step 10
    nrows_g=147 nrows=147 sparsity=.9892 nnzs=21375, refcount: 7>
  <dData1D:(new from dSpData1D) n=21375, refcount: 1>
refcount: 1>
new_DM -- step:    11
Re-using DM from previous geometries...
Number of DMs in history: 1
 DM extrapolation coefficients: 
1   1.00000
New DM after history re-use:
<dSpData2D:SpM extrapolated using coords
  <sparsity:sparsity for geom step 10
    nrows_g=147 nrows=147 sparsity=.9892 nnzs=21375, refcount: 9>
  <dData2D:(temp array for extrapolation) n=21375 m=1, refcount: 1>
refcount: 1>
No. of atoms with KB's overlaping orbs in proc 0. Max # of overlaps:      15     134

InitMesh: MESH = 180 x 160 x 144 = 4147200
InitMesh: Mesh cutoff (required, used) =   300.000   333.006 Ry
New grid distribution [1]: sub = 2

        iscf     Eharris(eV)        E_KS(eV)     FreeEng(eV)     dDmax    Ef(eV) dHmax(eV)
   scf:    1    -2375.832697    -2375.626798    -2375.626798  0.048265 -4.745661  0.887493
   scf:    2    -2375.053484    -2375.469075    -2375.469075  0.037583 -4.591334  2.236921
   scf:    3    -2375.703842    -2375.656197    -2375.656197  0.027543 -4.685924  0.050324
   scf:    4    -2375.656638    -2375.656434    -2375.656434  0.000630 -4.682557  0.026642
   scf:    5    -2375.656621    -2375.656538    -2375.656538  0.000663 -4.680715  0.007105
   scf:    6    -2375.656557    -2375.656549    -2375.656549  0.000321 -4.680391  0.001642
   scf:    7    -2375.656550    -2375.656550    -2375.656550  0.000119 -4.680404  0.001160
   scf:    8    -2375.656550    -2375.656550    -2375.656550  0.000097 -4.680371  0.000574

SCF Convergence by DM+H criterion
max |DM_out - DM_in|         :     0.0000965651
max |H_out - H_in|      (eV) :     0.0005744842
SCF cycle converged after 8 iterations

Using DM_out to compute the final energy and forces
No. of atoms with KB's overlaping orbs in proc 0. Max # of overlaps:      15     134

siesta: E_KS(eV) =            -2375.6565

siesta: Atomic forces (eV/Ang):
----------------------------------------
   Tot   -0.003365   -0.003511    0.000475
----------------------------------------
   Max    2.005729
   Res    0.648271    sqrt( Sum f_i^2 / 3N )
----------------------------------------
   Max    2.005729    constrained

Stress tensor Voigt[x,y,z,yz,xz,xy] (kbar):        0.24        0.08        0.26        0.39       -0.67        0.70
(Free)E + p*V (eV/cell)    -2376.0168
Target enthalpy (eV/cell)    -2375.6565

                     ====================================
                        Begin CG opt. move =     11
                     ====================================

outcell: Unit cell vectors (Ang):
       16.288872    0.000000    0.000000
        0.000000   14.576225    0.000000
        0.000000    0.000000   12.674934

outcell: Cell vector modules (Ang)   :   16.288872   14.576225   12.674934
outcell: Cell angles (23,13,12) (deg):     90.0000     90.0000     90.0000
outcell: Cell volume (Ang**3)        :   3009.4129
<dSpData1D:S at geom step 11
  <sparsity:sparsity for geom step 11
    nrows_g=147 nrows=147 sparsity=.9892 nnzs=21375, refcount: 7>
  <dData1D:(new from dSpData1D) n=21375, refcount: 1>
refcount: 1>
new_DM -- step:    12
Re-using DM from previous geometries...
Number of DMs in history: 1
 DM extrapolation coefficients: 
1   1.00000
New DM after history re-use:
<dSpData2D:SpM extrapolated using coords
  <sparsity:sparsity for geom step 11
    nrows_g=147 nrows=147 sparsity=.9892 nnzs=21375, refcount: 9>
  <dData2D:(temp array for extrapolation) n=21375 m=1, refcount: 1>
refcount: 1>
No. of atoms with KB's overlaping orbs in proc 0. Max # of overlaps:      15     134

InitMesh: MESH = 180 x 160 x 144 = 4147200
InitMesh: Mesh cutoff (required, used) =   300.000   333.006 Ry
New grid distribution [1]: sub = 2

        iscf     Eharris(eV)        E_KS(eV)     FreeEng(eV)     dDmax    Ef(eV) dHmax(eV)
   scf:    1    -2375.392418    -2375.678593    -2375.678593  0.043937 -4.544567  0.749423
   scf:    2    -2375.292368    -2375.574557    -2375.574557  0.032599 -4.735071  1.775875
   scf:    3    -2375.736100    -2375.701198    -2375.701198  0.023825 -4.606048  0.042552
   scf:    4    -2375.701536    -2375.701377    -2375.701377  0.000464 -4.609268  0.022824
   scf:    5    -2375.701529    -2375.701463    -2375.701463  0.000652 -4.611592  0.004396
   scf:    6    -2375.701473    -2375.701469    -2375.701469  0.000230 -4.611682  0.001668
   scf:    7    -2375.701470    -2375.701470    -2375.701470  0.000140 -4.611662  0.000882
   scf:    8    -2375.701470    -2375.701470    -2375.701470  0.000074 -4.611668  0.000546

SCF Convergence by DM+H criterion
max |DM_out - DM_in|         :     0.0000742974
max |H_out - H_in|      (eV) :     0.0005464897
SCF cycle converged after 8 iterations

Using DM_out to compute the final energy and forces
No. of atoms with KB's overlaping orbs in proc 0. Max # of overlaps:      15     134

siesta: E_KS(eV) =            -2375.7015

siesta: Atomic forces (eV/Ang):
----------------------------------------
   Tot    0.004259   -0.004232    0.002101
----------------------------------------
   Max    0.987107
   Res    0.337069    sqrt( Sum f_i^2 / 3N )
----------------------------------------
   Max    0.987107    constrained

Stress tensor Voigt[x,y,z,yz,xz,xy] (kbar):       -0.50       -0.05        0.19        0.16       -0.60        0.39
(Free)E + p*V (eV/cell)    -2375.4762
Target enthalpy (eV/cell)    -2375.7015

cgvc: Finished line minimization    4.  Mean atomic displacement =    0.0613

                     ====================================
                        Begin CG opt. move =     12
                     ====================================

outcell: Unit cell vectors (Ang):
       16.288872    0.000000    0.000000
        0.000000   14.576225    0.000000
        0.000000    0.000000   12.674934

outcell: Cell vector modules (Ang)   :   16.288872   14.576225   12.674934
outcell: Cell angles (23,13,12) (deg):     90.0000     90.0000     90.0000
outcell: Cell volume (Ang**3)        :   3009.4129
<dSpData1D:S at geom step 12
  <sparsity:sparsity for geom step 12
    nrows_g=147 nrows=147 sparsity=.9884 nnzs=21359, refcount: 7>
  <dData1D:(new from dSpData1D) n=21359, refcount: 1>
refcount: 1>
new_DM -- step:    13
Re-using DM from previous geometries...
Number of DMs in history: 1
 DM extrapolation coefficients: 
1   1.00000
New DM after history re-use:
<dSpData2D:SpM extrapolated using coords
  <sparsity:sparsity for geom step 12
    nrows_g=147 nrows=147 sparsity=.9884 nnzs=21359, refcount: 9>
  <dData2D:(temp array for extrapolation) n=21359 m=1, refcount: 1>
refcount: 1>
No. of atoms with KB's overlaping orbs in proc 0. Max # of overlaps:      15     134

InitMesh: MESH = 180 x 160 x 144 = 4147200
InitMesh: Mesh cutoff (required, used) =   300.000   333.006 Ry
New grid distribution [1]: sub = 2

        iscf     Eharris(eV)        E_KS(eV)     FreeEng(eV)     dDmax    Ef(eV) dHmax(eV)
   scf:    1    -2375.883152    -2375.750514    -2375.750514  0.043222 -4.886769  0.441958
   scf:    2    -2375.338309    -2375.633445    -2375.633445  0.043406 -4.808350  1.323621
   scf:    3    -2375.797989    -2375.766911    -2375.766911  0.030832 -4.855261  0.035364
   scf:    4    -2375.767348    -2375.767144    -2375.767144  0.001064 -4.852107  0.023829
   scf:    5    -2375.767329    -2375.767249    -2375.767249  0.001032 -4.850534  0.007995
   scf:    6    -2375.767262    -2375.767256    -2375.767256  0.000198 -4.850847  0.003277
   scf:    7    -2375.767259    -2375.767258    -2375.767258  0.000140 -4.851074  0.000837
   scf:    8    -2375.767258    -2375.767258    -2375.767258  0.000043 -4.851088  0.000537

SCF Convergence by DM+H criterion
max |DM_out - DM_in|         :     0.0000429309
max |H_out - H_in|      (eV) :     0.0005374729
SCF cycle converged after 8 iterations

Using DM_out to compute the final energy and forces
No. of atoms with KB's overlaping orbs in proc 0. Max # of overlaps:      15     134

siesta: E_KS(eV) =            -2375.7673

siesta: Atomic forces (eV/Ang):
----------------------------------------
   Tot    0.001303   -0.005600    0.001195
----------------------------------------
   Max    0.878705
   Res    0.285474    sqrt( Sum f_i^2 / 3N )
----------------------------------------
   Max    0.878705    constrained

Stress tensor Voigt[x,y,z,yz,xz,xy] (kbar):       -0.21       -0.20        0.17        0.02       -0.58       -0.05
(Free)E + p*V (eV/cell)    -2375.6219
Target enthalpy (eV/cell)    -2375.7673

                     ====================================
                        Begin CG opt. move =     13
                     ====================================

outcell: Unit cell vectors (Ang):
       16.288872    0.000000    0.000000
        0.000000   14.576225    0.000000
        0.000000    0.000000   12.674934

outcell: Cell vector modules (Ang)   :   16.288872   14.576225   12.674934
outcell: Cell angles (23,13,12) (deg):     90.0000     90.0000     90.0000
outcell: Cell volume (Ang**3)        :   3009.4129
<dSpData1D:S at geom step 13
  <sparsity:sparsity for geom step 13
    nrows_g=147 nrows=147 sparsity=.9884 nnzs=21359, refcount: 7>
  <dData1D:(new from dSpData1D) n=21359, refcount: 1>
refcount: 1>
new_DM -- step:    14
Re-using DM from previous geometries...
Number of DMs in history: 1
 DM extrapolation coefficients: 
1   1.00000
New DM after history re-use:
<dSpData2D:SpM extrapolated using coords
  <sparsity:sparsity for geom step 13
    nrows_g=147 nrows=147 sparsity=.9884 nnzs=21359, refcount: 9>
  <dData2D:(temp array for extrapolation) n=21359 m=1, refcount: 1>
refcount: 1>
No. of atoms with KB's overlaping orbs in proc 0. Max # of overlaps:      15     134

InitMesh: MESH = 180 x 160 x 144 = 4147200
InitMesh: Mesh cutoff (required, used) =   300.000   333.006 Ry
New grid distribution [1]: sub = 2

        iscf     Eharris(eV)        E_KS(eV)     FreeEng(eV)     dDmax    Ef(eV) dHmax(eV)
   scf:    1    -2375.787702    -2375.616815    -2375.616815  0.075885 -3.268862  0.771405
   scf:    2    -2373.970557    -2375.144944    -2375.144944  0.077225 -3.312393  2.477361
   scf:    3    -2375.802520    -2375.675092    -2375.675092  0.058116 -3.264528  0.065866
   scf:    4    -2375.676252    -2375.675713    -2375.675713  0.001323 -3.263751  0.037837
   scf:    5    -2375.676263    -2375.676021    -2375.676021  0.001413 -3.264934  0.013505
   scf:    6    -2375.676071    -2375.676049    -2375.676049  0.000535 -3.265733  0.004141
   scf:    7    -2375.676054    -2375.676052    -2375.676052  0.000198 -3.265948  0.001405
   scf:    8    -2375.676054    -2375.676053    -2375.676053  0.000131 -3.265979  0.001040
   scf:    9    -2375.676053    -2375.676053    -2375.676053  0.000073 -3.265929  0.000562

SCF Convergence by DM+H criterion
max |DM_out - DM_in|         :     0.0000729333
max |H_out - H_in|      (eV) :     0.0005624186
SCF cycle converged after 9 iterations

Using DM_out to compute the final energy and forces
No. of atoms with KB's overlaping orbs in proc 0. Max # of overlaps:      15     134

siesta: E_KS(eV) =            -2375.6761

siesta: Atomic forces (eV/Ang):
----------------------------------------
   Tot   -0.004107   -0.002857   -0.001537
----------------------------------------
   Max    2.784618
   Res    0.836819    sqrt( Sum f_i^2 / 3N )
----------------------------------------
   Max    2.784618    constrained

Stress tensor Voigt[x,y,z,yz,xz,xy] (kbar):        0.26       -0.34        0.25       -0.13       -0.51       -0.81
(Free)E + p*V (eV/cell)    -2375.7871
Target enthalpy (eV/cell)    -2375.6761

                     ====================================
                        Begin CG opt. move =     14
                     ====================================

outcell: Unit cell vectors (Ang):
       16.288872    0.000000    0.000000
        0.000000   14.576225    0.000000
        0.000000    0.000000   12.674934

outcell: Cell vector modules (Ang)   :   16.288872   14.576225   12.674934
outcell: Cell angles (23,13,12) (deg):     90.0000     90.0000     90.0000
outcell: Cell volume (Ang**3)        :   3009.4129
<dSpData1D:S at geom step 14
  <sparsity:sparsity for geom step 14
    nrows_g=147 nrows=147 sparsity=.9884 nnzs=21359, refcount: 7>
  <dData1D:(new from dSpData1D) n=21359, refcount: 1>
refcount: 1>
new_DM -- step:    15
Re-using DM from previous geometries...
Number of DMs in history: 1
 DM extrapolation coefficients: 
1   1.00000
New DM after history re-use:
<dSpData2D:SpM extrapolated using coords
  <sparsity:sparsity for geom step 14
    nrows_g=147 nrows=147 sparsity=.9884 nnzs=21359, refcount: 9>
  <dData2D:(temp array for extrapolation) n=21359 m=1, refcount: 1>
refcount: 1>
No. of atoms with KB's overlaping orbs in proc 0. Max # of overlaps:      15     134

InitMesh: MESH = 180 x 160 x 144 = 4147200
InitMesh: Mesh cutoff (required, used) =   300.000   333.006 Ry
New grid distribution [1]: sub = 2

        iscf     Eharris(eV)        E_KS(eV)     FreeEng(eV)     dDmax    Ef(eV) dHmax(eV)
   scf:    1    -2375.430651    -2375.738080    -2375.738080  0.066659 -4.881587  0.517612
   scf:    2    -2374.930998    -2375.506747    -2375.506747  0.061002 -4.961933  1.745743
   scf:    3    -2375.824243    -2375.768098    -2375.768098  0.046286 -4.897703  0.057436
   scf:    4    -2375.769077    -2375.768623    -2375.768623  0.001354 -4.898583  0.036630
   scf:    5    -2375.769023    -2375.768850    -2375.768850  0.001299 -4.898228  0.012283
   scf:    6    -2375.768880    -2375.768866    -2375.768866  0.000399 -4.897598  0.003650
   scf:    7    -2375.768871    -2375.768869    -2375.768869  0.000168 -4.897294  0.001197
   scf:    8    -2375.768870    -2375.768869    -2375.768869  0.000099 -4.897205  0.000850

SCF Convergence by DM+H criterion
max |DM_out - DM_in|         :     0.0000993262
max |H_out - H_in|      (eV) :     0.0008502612
SCF cycle converged after 8 iterations

Using DM_out to compute the final energy and forces
No. of atoms with KB's overlaping orbs in proc 0. Max # of overlaps:      15     134

siesta: E_KS(eV) =            -2375.7689

siesta: Atomic forces (eV/Ang):
----------------------------------------
   Tot    0.000798   -0.006235    0.000935
----------------------------------------
   Max    0.948456
   Res    0.335112    sqrt( Sum f_i^2 / 3N )
----------------------------------------
   Max    0.948456    constrained

Stress tensor Voigt[x,y,z,yz,xz,xy] (kbar):       -0.15       -0.22        0.18        0.00       -0.57       -0.13
(Free)E + p*V (eV/cell)    -2375.6458
Target enthalpy (eV/cell)    -2375.7689

cgvc: Finished line minimization    5.  Mean atomic displacement =    0.0729

                     ====================================
                        Begin CG opt. move =     15
                     ====================================

outcell: Unit cell vectors (Ang):
       16.288872    0.000000    0.000000
        0.000000   14.576225    0.000000
        0.000000    0.000000   12.674934

outcell: Cell vector modules (Ang)   :   16.288872   14.576225   12.674934
outcell: Cell angles (23,13,12) (deg):     90.0000     90.0000     90.0000
outcell: Cell volume (Ang**3)        :   3009.4129
<dSpData1D:S at geom step 15
  <sparsity:sparsity for geom step 15
    nrows_g=147 nrows=147 sparsity=.9884 nnzs=21359, refcount: 7>
  <dData1D:(new from dSpData1D) n=21359, refcount: 1>
refcount: 1>
new_DM -- step:    16
Re-using DM from previous geometries...
Number of DMs in history: 1
 DM extrapolation coefficients: 
1   1.00000
New DM after history re-use:
<dSpData2D:SpM extrapolated using coords
  <sparsity:sparsity for geom step 15
    nrows_g=147 nrows=147 sparsity=.9884 nnzs=21359, refcount: 9>
  <dData2D:(temp array for extrapolation) n=21359 m=1, refcount: 1>
refcount: 1>
No. of atoms with KB's overlaping orbs in proc 0. Max # of overlaps:      15     134

InitMesh: MESH = 180 x 160 x 144 = 4147200
InitMesh: Mesh cutoff (required, used) =   300.000   333.006 Ry
New grid distribution [1]: sub = 2

        iscf     Eharris(eV)        E_KS(eV)     FreeEng(eV)     dDmax    Ef(eV) dHmax(eV)
   scf:    1    -2375.942234    -2375.828500    -2375.828500  0.051069 -4.936262  0.441703
   scf:    2    -2375.619723    -2375.773007    -2375.773007  0.024240 -5.002170  1.188663
   scf:    3    -2375.860277    -2375.842105    -2375.842105  0.016945 -4.956706  0.050757
   scf:    4    -2375.842531    -2375.842331    -2375.842331  0.000620 -4.956752  0.026760
   scf:    5    -2375.842521    -2375.842440    -2375.842440  0.000749 -4.955678  0.004811
   scf:    6    -2375.842450    -2375.842445    -2375.842445  0.000185 -4.955104  0.002144
   scf:    7    -2375.842448    -2375.842447    -2375.842447  0.000137 -4.954821  0.001013
   scf:    8    -2375.842448    -2375.842447    -2375.842447  0.000091 -4.954745  0.000743

SCF Convergence by DM+H criterion
max |DM_out - DM_in|         :     0.0000912065
max |H_out - H_in|      (eV) :     0.0007426535
SCF cycle converged after 8 iterations

Using DM_out to compute the final energy and forces
No. of atoms with KB's overlaping orbs in proc 0. Max # of overlaps:      15     134

siesta: E_KS(eV) =            -2375.8424

siesta: Atomic forces (eV/Ang):
----------------------------------------
   Tot   -0.001307   -0.006456   -0.000233
----------------------------------------
   Max    0.775752
   Res    0.258796    sqrt( Sum f_i^2 / 3N )
----------------------------------------
   Max    0.775752    constrained

Stress tensor Voigt[x,y,z,yz,xz,xy] (kbar):        0.15        0.19        0.18       -0.00       -0.25        0.23
(Free)E + p*V (eV/cell)    -2376.1680
Target enthalpy (eV/cell)    -2375.8424

outcoor: Final (unrelaxed) atomic coordinates (Ang):        
    0.00212264    0.12330701   -0.18281829   1       1  N
   -1.43047772    0.01385756   -0.11872942   2       2  C
   -2.12253792    1.33847018   -0.32085439   2       3  C
   -1.40045385    2.45644504    0.05335249   2       4  C
   -0.07427884    2.36110159    0.48324401   1       5  N
    0.75997635    1.28133143    0.08301065   2       6  C
   -3.29510681    1.33254206   -1.26989943   2       7  C
   -4.29996380    1.39063232   -0.79875482   3       8  H
   -3.23130466    2.17467602   -2.01210924   3       9  H
   -3.29282947    0.38567419   -1.85800758   3      10  H
   -1.79723340    3.49983128   -0.03289159   3      11  H
    0.45825824    3.23827573    0.65588725   3      12  H
    0.56172919   -0.72287185   -0.41766830   3      13  H
    1.99805588    1.36518579    0.01405056   4      14  O
   -1.99776673   -1.09042762   -0.10850999   4      15  O

coxmol: Writing XMOL coordinates into file optimization.xyz                                                                                                                                                                                                                    

siesta: Program's energy decomposition (eV):
siesta: Ebs     =      -667.279315
siesta: Eions   =      3810.579487
siesta: Ena     =       843.202835
siesta: Ekin    =      1605.268353
siesta: Enl     =      -228.774451
siesta: Eso     =         0.000000
siesta: Edftu   =         0.000000
siesta: DEna    =       -56.468299
siesta: DUscf   =         5.804308
siesta: DUext   =         0.000000
siesta: Ex      =      -679.098329
siesta: Ec      =       -55.197378
siesta: Exc     =      -734.295707
siesta: EbV     =         0.000000
siesta: eta*DQ  =         0.000000
siesta: Emadel  =         0.000000
siesta: Emeta   =         0.000000
siesta: Emolmec =         0.000000
siesta: Ekinion =         0.000000
siesta: Eharris =     -2375.842448
siesta: Etot    =     -2375.842447
siesta: FreeEng =     -2375.842447

siesta: Final energy (eV):
siesta:  Band Struct. =    -667.279315
siesta:       Kinetic =    1605.268353
siesta:       Hartree =    4823.766199
siesta:         Edftu =       0.000000
siesta:       Eso     =       0.000000
siesta:    Ext. field =       0.000000
siesta:         Exch. =    -679.098329
siesta:         Corr. =     -55.197378
siesta:     Bulk bias =       0.000000
siesta:   Exch.-corr. =    -734.295707
siesta:  Ion-electron =  -11099.264740
siesta:       Ion-ion =    3028.683448
siesta:       Ekinion =       0.000000
siesta: D3 dispersion =       0.000000
siesta:         Total =   -2375.842447
siesta:         Fermi =      -4.954745

siesta: Atomic forces (eV/Ang):
siesta:      1    0.197232   -0.072968    0.292034
siesta:      2    0.064240    0.226304   -0.759817
siesta:      3    0.775752   -0.345108   -0.042037
siesta:      4   -0.166599    0.056803   -0.161133
siesta:      5    0.520699    0.328459   -0.051351
siesta:      6   -0.238477   -0.000179    0.168236
siesta:      7   -0.392833    0.310402   -0.118908
siesta:      8   -0.377262    0.016324    0.362667
siesta:      9    0.057535    0.073064    0.108271
siesta:     10    0.059611   -0.283935   -0.055326
siesta:     11   -0.044589   -0.030518   -0.014853
siesta:     12   -0.163043   -0.279720   -0.036075
siesta:     13   -0.240088    0.083141    0.209563
siesta:     14   -0.268463   -0.119814    0.084980
siesta:     15    0.214977    0.031288    0.013517
siesta: ----------------------------------------
siesta:    Tot   -0.001307   -0.006456   -0.000233

siesta: Stress tensor (static) (eV/Ang**3):
siesta:     0.000094    0.000141   -0.000157
siesta:     0.000141    0.000119   -0.000003
siesta:    -0.000157   -0.000003    0.000111

siesta: Cell volume =       3009.412917 Ang**3

siesta: Pressure (static):
siesta:                Solid            Molecule  Units
siesta:          -0.00000118         -0.00000003  Ry/Bohr**3
siesta:          -0.00010817         -0.00000288  eV/Ang**3
siesta:          -0.17330067         -0.00461715  kBar

Basis Enthalpy Calculation:
    Basis Pressure for species 1(N) :      0.0200000 GPa
    Basis Pressure for species 2(C) :      0.0200000 GPa
    Basis Pressure for species 3(H) :      0.0200000 GPa
    Basis Pressure for species 4(O) :      0.0200000 GPa

    Orbital volume contribution        =           1.047650 eV
    (Free)E + p_basis*V_orbitals       =       -2374.794798 eV
    (Free)Eharris+ p_basis*V_orbitals  =       -2374.794798 eV
WARNING: BASIS_ENTHALPY and BASIS_HARRIS_ENTHALPY files are deprecated. They will be removed in future releases.
Please use system_label.BASIS_ENTHALPY in your scripts instead.

siesta: Electric dipole (a.u.)  =   -0.482561    1.334431   -0.228143
siesta: Electric dipole (Debye) =   -1.226547    3.391786   -0.579881

cite: Please indicate the Siesta version in published work: 5.4.2
cite: This calculation has made use of features in the following articles
cite: which we encourage you to cite in published work.
cite: (Please see "optimization.bib" for a BibTeX file.)
        Primary SIESTA paper
          DOI: www.doi.org/10.1088/0953-8984/14/11/302
        PSML pseudopotential format
          DOI: www.doi.org/10.1016/j.cpc.2018.02.011


timer: Elapsed wall time (sec) =     335.286
timer: CPU execution times (sec):

Routine            Calls   Time/call    Tot.time        %
siesta                 1     335.102     335.102   100.00
Setup                  1       0.226       0.226     0.07
bands                  1       0.000       0.000     0.00
KSV_init               1       0.000       0.000     0.00
IterGeom              16      20.928     334.855    99.93
geom_init             16       3.496      55.939    16.69
state_init            16       0.210       3.367     1.00
hsparse               16       0.000       0.007     0.00
overlap               16       0.003       0.050     0.01
Setup_H0              16       1.677      26.825     8.01
naefs                 32       0.000       0.001     0.00
dnaefs                16       0.000       0.000     0.00
two-body              16       0.000       0.000     0.00
MolMec                32       0.000       0.000     0.00
kinefsm               32       0.003       0.103     0.03
nlefsm                32       0.010       0.335     0.10
DHSCF_Init            16       1.667      26.673     7.96
DHSCF1                16       0.038       0.614     0.18
InitMesh              16       0.038       0.614     0.18
INITMESH              16       0.000       0.000     0.00
DHSCF2                16       1.629      26.059     7.78
REMESH                16       0.090       1.433     0.43
REORD                578       0.005       2.919     0.87
PHION                 16       1.185      18.957     5.66
COMM_BSC             724       0.004       2.763     0.82
POISON               185       0.173      32.028     9.56
fft                  370       0.064      23.612     7.05
setup_H              153       1.607     245.945    73.39
DHSCF                169       1.793     303.075    90.44
DHSCF3               169       1.605     271.179    80.92
rhoofd               169       0.471      79.549    23.74
XC                   169       0.548      92.621    27.64
GXC-CellXC           169       0.526      88.951    26.54
gridxc@cellXC        169       0.526      88.950    26.54
vmat                 169       0.339      57.243    17.08
IterSCF              137       1.612     220.902    65.92
compute_dm           137       0.005       0.644     0.19
diagon               137       0.005       0.639     0.19
r-eigvec             137       0.004       0.505     0.15
r-buildHS            137       0.000       0.006     0.00
rdiag                137       0.004       0.499     0.15
rdiag1               137       0.000       0.017     0.01
rdiag2               137       0.000       0.055     0.02
rdiag3               137       0.002       0.301     0.09
rdiag4               137       0.001       0.121     0.04
r-buildD             137       0.001       0.127     0.04
MIXER                121       0.000       0.016     0.00
PostSCF               16       3.625      58.003    17.31
FINAL_HF              16       3.625      58.003    17.31
DHSCF4                16       1.994      31.896     9.52
dfscf                 16       1.756      28.098     8.38
overfsm               16       0.003       0.052     0.02
writeHSX              16       0.000       0.005     0.00
state_analysis        16       0.000       0.002     0.00
siesta_move           16       0.000       0.005     0.00
Analysis               1       0.001       0.001     0.00
optical                1       0.000       0.000     0.00
  

>> End of run:  24-MAR-2026  12:50:06
Job completed
Job completed
