Executable      : siesta
Version         : 5.4.2
Architecture    : x86_64
Compiler version: GNU-14.3.0
Compiler flags  : -march=nocona -mtune=haswell -ftree-vectorize -fPIC -fstack-protector-strong -fno-plt -O2 -ffunction-sections -pipe -isystem <prefix>/include -I<prefix>/_build_env/include -fdebug-prefix-map=<prefix>/work=/usr/local/src/conda/siesta-5.4.2 -fdebug-prefix-map=<prefix>=/usr/local/src/conda-prefix -I<prefix>/lib -fallow-argument-mismatch -O3
Parallelisations: none
NetCDF support
NetCDF-4 support
Lua support
DFT-D3 support

Runtime information:
* Directory : /home/UAB/1630649/Documents/2026-03-24 SSN/Optimitzacio/Run
* Running in serial mode.
>> Start of run:  24-MAR-2026  11:47:42

                           *********************** 
                           *  WELCOME TO SIESTA  * 
                           *********************** 

 NOTE: Siesta V5 introduces some new defaults for basis-set generation
 NOTE: which might lead to slightly different numerical results.
 NOTE: Please see the manual for full details and compatibility measures.


reinit: Reading from file optimization.fdf

reinit: -----------------------------------------------------------------------
reinit: System Name: 
reinit: -----------------------------------------------------------------------
reinit: System Label: optimization
reinit: -----------------------------------------------------------------------

initatom: Reading input for the pseudopotentials and atomic orbitals ----------
Species number:   1 Atomic number:    7 Label: N
Species number:   2 Atomic number:    6 Label: C
Species number:   3 Atomic number:    1 Label: H
Species number:   4 Atomic number:    8 Label: O

Ground state valence configuration (from tables):   2s02  2p03  3d00  4f00
Ground state valence configuration (from tables):   2s02  2p02  3d00  4f00
Ground state valence configuration (from tables):   1s01  2p00  3d00  4f00
Ground state valence configuration (from tables):   2s02  2p04  3d00  4f00

---- Processing specs for species: N
Reading pseudopotential information in PSML from:
  N.psml
PSML file version: 1.1
Using libxc ids:  101 130
GGA--PBE XC_GGA_X_PBE--XC_GGA_C_PBE pb
PSML uuid: 31bde650-be41-11e7-78a7-66593edf4b14

---- Processing specs for species: C
Reading pseudopotential information in PSML from:
  C.psml
PSML file version: 1.1
Using libxc ids:  101 130
GGA--PBE XC_GGA_X_PBE--XC_GGA_C_PBE pb
PSML uuid: 297821e0-be41-11e7-6802-e1ff7dfff095

---- Processing specs for species: H
Reading pseudopotential information in PSML from:
  H.psml
PSML file version: 1.1
Using libxc ids:  101 130
GGA--PBE XC_GGA_X_PBE--XC_GGA_C_PBE pb
PSML uuid: f95fa9b0-be40-11e7-634a-9594ffff953f

---- Processing specs for species: O
Reading pseudopotential information in PSML from:
  O.psml
PSML file version: 1.1
Using libxc ids:  101 130
GGA--PBE XC_GGA_X_PBE--XC_GGA_C_PBE pb
PSML uuid: 3cff85a0-be41-11e7-6c5c-1b1fe64d18ef

---- Pseudopotential check for N 

Pseudized shells:
2s( 2.00) rc: 1.21
2p( 3.00) rc: 1.36
Valence configuration for ps generation: 2s:2p: Total charge:   5.000000

---- Pseudopotential check for C 

Pseudized shells:
2s( 2.00) rc: 1.20
2p( 2.00) rc: 1.26
Valence configuration for ps generation: 2s:2p: Total charge:   4.000000

---- Pseudopotential check for H 

Pseudized shells:
1s( 1.00) rc: 1.01
2p( 0.00) rc: 0.71
Valence configuration for ps generation: 1s: Total charge:   1.000000

---- Pseudopotential check for O 

Pseudized shells:
2s( 2.00) rc: 1.36
2p( 4.00) rc: 1.46
3d( 0.00) rc: 1.26
Valence configuration for ps generation: 2s:2p: Total charge:   6.000000
For N, standard SIESTA heuristics set lmxkb to 3
 (one more than the basis l, including polarization orbitals).
Use PS.lmax or PS.KBprojectors blocks to override.
For C, standard SIESTA heuristics set lmxkb to 3
 (one more than the basis l, including polarization orbitals).
Use PS.lmax or PS.KBprojectors blocks to override.
For H, standard SIESTA heuristics set lmxkb to 2
 (one more than the basis l, including polarization orbitals).
Use PS.lmax or PS.KBprojectors blocks to override.
For O, standard SIESTA heuristics set lmxkb to 3
 (one more than the basis l, including polarization orbitals).
Use PS.lmax or PS.KBprojectors blocks to override.
N pseudopotential only contains V_ls up to l=1 -- lmxkb reset.
C pseudopotential only contains V_ls up to l=1 -- lmxkb reset.
H pseudopotential only contains V_ls up to l=1 -- lmxkb reset.
O pseudopotential only contains V_ls up to l=2 -- lmxkb reset.

<basis_specs>
===============================================================================
N                    Z=   7    Mass=  14.007        Charge= 0.17977+309
Lmxo=2 Lmxkb= 1    BasisType=split      Semic=F
L=0  Nsemic=0  Cnfigmx=2
          i=1  nzeta=2  polorb=0  (2s)
            splnorm:   0.15000    
               vcte:    40.000    
               rinn:  -0.90000    
               qcoe:    0.0000    
               qyuk:    0.0000    
               qwid:   0.10000E-01
                rcs:    0.0000      0.0000    
            lambdas:    1.0000      1.0000    
L=1  Nsemic=0  Cnfigmx=2
          i=1  nzeta=2  polorb=1  (2p)  (to be polarized perturbatively)
            splnorm:   0.15000    
               vcte:    40.000    
               rinn:  -0.90000    
               qcoe:    0.0000    
               qyuk:    0.0000    
               qwid:   0.10000E-01
                rcs:    0.0000      0.0000    
            lambdas:    1.0000      1.0000    
L=2  Nsemic=0  Cnfigmx=3
          i=1  nzeta=0  polorb=0  (3d)  (perturbative polarization orbital) (from 2p)
-------------------------------------------------------------------------------
L=0  Nkbl=1  erefs: 0.17977+309
L=1  Nkbl=1  erefs: 0.17977+309
===============================================================================
</basis_specs>

Using PAO.SplitTailNorm
atom: Called for N                     (Z =   7)
NOTE: N pseudopotential has channels up to l= 1
NOTE: PAOs with higher l will be generated with V_local
Maximum radius (at nrval) set to   50.00000 8518

read_vps: Pseudopotential generation method:
read_vps: ONCVPSP-3.Hamann's oncvpsp                        
Valence charge in pseudo generation:    5.00000

read_vps: Pseudopotential includes a core correction:
read_vps: Pseudo-core for xc-correction

xc_check: Exchange-correlation functional:
xc_check: GGA Perdew, Burke & Ernzerhof 1996
Got Vlocal (oncv-fit) from psml data
Choosing vlocal chloc cutoff:  6.038618
qtot up to nchloc:    4.99995109
atom: Maximum radius for chlocal:    6.03862
atom: Maximum radius for r*vlocal+2*Zval:    6.03862
Reading KB projs from N psml data
Using scalar-relativistic projectors in PSML file

PSML: Kleinman-Bylander projectors: 
   l= 0   rc=  1.214864   Ekb= 14.989018
   l= 0   rc=  1.221004   Ekb=  1.272610
   l= 1   rc=  1.375180   Ekb= -8.587810
   l= 1   rc=  1.375180   Ekb= -2.013976

PSML: Total number of  Kleinman-Bylander projectors:   8
atom: -------------------------------------------------------------------------

atom: SANKEY-TYPE ORBITALS:
atom: Selected multiple-zeta basis: split     

SPLIT: Orbitals with angular momentum L= 0

SPLIT: Basis orbitals for state 2s

SPLIT: PAO cut-off radius determined from an
SPLIT: energy shift=  0.000735 Ry
Split based on tail norm

   izeta = 1
                 lambda =    1.000000
                     rc =    5.128853
                 energy =   -1.364951
                kinetic =    1.219328
    potential(screened) =   -2.584278
       potential(ionic) =   -8.061064

   izeta = 2
                 rmatch =    2.799004
              splitnorm =    0.150000
                 energy =   -1.108465
                kinetic =    2.068776
    potential(screened) =   -3.177241
       potential(ionic) =   -9.112461

SPLIT: Orbitals with angular momentum L= 1

SPLIT: Basis orbitals for state 2p

SPLIT: PAO cut-off radius determined from an
SPLIT: energy shift=  0.000735 Ry
Split based on tail norm

   izeta = 1
                 lambda =    1.000000
                     rc =    6.614864
                 energy =   -0.520217
                kinetic =    3.392575
    potential(screened) =   -3.912792
       potential(ionic) =   -9.170860

   izeta = 2
                 rmatch =    3.582433
              splitnorm =    0.150000
                 energy =   -0.423250
                kinetic =    4.550527
    potential(screened) =   -4.973778
       potential(ionic) =  -10.717060
*Note: V_local used for l= 2

** Using vlocal for PAOs with L= 2

POLgen: Perturbative polarization orbital with L=  2

POLgen: Polarization orbital for state 2p
*Note: V_local used for lpol= 2

** Using vlocal for PAOs with L= 2
Split based on tail norm

   izeta = 1
                     rc =    6.614864
                 energy =    1.365983
                kinetic =    2.607373
    potential(screened) =   -1.241390
       potential(ionic) =   -5.257349
atom: Total number of Sankey-type orbitals: 13

atm_pop: Valence configuration (for local Pseudopot. screening):
 2s( 2.00)                                                            
 2p( 3.00)                                                            
 3d( 0.00)                                                            
Vna: chval, zval:    5.00000   5.00000

Vna:  Cut-off radius for the neutral-atom potential:   6.614864
comcore: Pseudo-core radius Rcore=  1.572221

atom: _________________________________________________________________________

<basis_specs>
===============================================================================
C                    Z=   6    Mass=  12.011        Charge= 0.17977+309
Lmxo=2 Lmxkb= 1    BasisType=split      Semic=F
L=0  Nsemic=0  Cnfigmx=2
          i=1  nzeta=2  polorb=0  (2s)
            splnorm:   0.15000    
               vcte:    40.000    
               rinn:  -0.90000    
               qcoe:    0.0000    
               qyuk:    0.0000    
               qwid:   0.10000E-01
                rcs:    0.0000      0.0000    
            lambdas:    1.0000      1.0000    
L=1  Nsemic=0  Cnfigmx=2
          i=1  nzeta=2  polorb=1  (2p)  (to be polarized perturbatively)
            splnorm:   0.15000    
               vcte:    40.000    
               rinn:  -0.90000    
               qcoe:    0.0000    
               qyuk:    0.0000    
               qwid:   0.10000E-01
                rcs:    0.0000      0.0000    
            lambdas:    1.0000      1.0000    
L=2  Nsemic=0  Cnfigmx=3
          i=1  nzeta=0  polorb=0  (3d)  (perturbative polarization orbital) (from 2p)
-------------------------------------------------------------------------------
L=0  Nkbl=1  erefs: 0.17977+309
L=1  Nkbl=1  erefs: 0.17977+309
===============================================================================
</basis_specs>

Using PAO.SplitTailNorm
atom: Called for C                     (Z =   6)
NOTE: C pseudopotential has channels up to l= 1
NOTE: PAOs with higher l will be generated with V_local
Maximum radius (at nrval) set to   50.00000 8518

read_vps: Pseudopotential generation method:
read_vps: ONCVPSP-3.Hamann's oncvpsp                        
Valence charge in pseudo generation:    4.00000

read_vps: Pseudopotential includes a core correction:
read_vps: Pseudo-core for xc-correction

xc_check: Exchange-correlation functional:
xc_check: GGA Perdew, Burke & Ernzerhof 1996
Got Vlocal (oncv-fit) from psml data
Choosing vlocal chloc cutoff:  4.122282
qtot up to nchloc:    4.00001153
atom: Maximum radius for chlocal:    4.12228
atom: Maximum radius for r*vlocal+2*Zval:    4.12228
Reading KB projs from C psml data
Using scalar-relativistic projectors in PSML file

PSML: Kleinman-Bylander projectors: 
   l= 0   rc=  1.219773   Ekb= 12.963096
   l= 0   rc=  1.219773   Ekb=  0.771007
   l= 1   rc=  1.278952   Ekb= -8.399923
   l= 1   rc=  1.278952   Ekb= -1.755033

PSML: Total number of  Kleinman-Bylander projectors:   8
atom: -------------------------------------------------------------------------

atom: SANKEY-TYPE ORBITALS:
atom: Selected multiple-zeta basis: split     

SPLIT: Orbitals with angular momentum L= 0

SPLIT: Basis orbitals for state 2s

SPLIT: PAO cut-off radius determined from an
SPLIT: energy shift=  0.000735 Ry
Split based on tail norm

   izeta = 1
                 lambda =    1.000000
                     rc =    5.865727
                 energy =   -1.009782
                kinetic =    0.907850
    potential(screened) =   -1.917632
       potential(ionic) =   -5.443189

   izeta = 2
                 rmatch =    3.302919
              splitnorm =    0.150000
                 energy =   -0.812047
                kinetic =    1.580868
    potential(screened) =   -2.392915
       potential(ionic) =   -6.200698

SPLIT: Orbitals with angular momentum L= 1

SPLIT: Basis orbitals for state 2p

SPLIT: PAO cut-off radius determined from an
SPLIT: energy shift=  0.000735 Ry
Split based on tail norm

   izeta = 1
                 lambda =    1.000000
                     rc =    7.564822
                 energy =   -0.387582
                kinetic =    2.372253
    potential(screened) =   -2.759835
       potential(ionic) =   -6.120604

   izeta = 2
                 rmatch =    4.252389
              splitnorm =    0.150000
                 energy =   -0.314961
                kinetic =    3.225377
    potential(screened) =   -3.540338
       potential(ionic) =   -7.207912
*Note: V_local used for l= 2

** Using vlocal for PAOs with L= 2

POLgen: Perturbative polarization orbital with L=  2

POLgen: Polarization orbital for state 2p
*Note: V_local used for lpol= 2

** Using vlocal for PAOs with L= 2
Split based on tail norm

   izeta = 1
                     rc =    7.564822
                 energy =    0.923681
                kinetic =    1.875515
    potential(screened) =   -0.951834
       potential(ionic) =   -3.587740
atom: Total number of Sankey-type orbitals: 13

atm_pop: Valence configuration (for local Pseudopot. screening):
 2s( 2.00)                                                            
 2p( 2.00)                                                            
 3d( 0.00)                                                            
Vna: chval, zval:    4.00000   4.00000

Vna:  Cut-off radius for the neutral-atom potential:   7.564822
comcore: Pseudo-core radius Rcore=  1.671741

atom: _________________________________________________________________________

<basis_specs>
===============================================================================
H                    Z=   1    Mass=  1.0080        Charge= 0.17977+309
Lmxo=1 Lmxkb= 1    BasisType=split      Semic=F
L=0  Nsemic=0  Cnfigmx=1
          i=1  nzeta=2  polorb=1  (1s)  (to be polarized perturbatively)
            splnorm:   0.15000    
               vcte:    40.000    
               rinn:  -0.90000    
               qcoe:    0.0000    
               qyuk:    0.0000    
               qwid:   0.10000E-01
                rcs:    0.0000      0.0000    
            lambdas:    1.0000      1.0000    
L=1  Nsemic=0  Cnfigmx=2
          i=1  nzeta=0  polorb=0  (2p)  (perturbative polarization orbital) (from 1s)
-------------------------------------------------------------------------------
L=0  Nkbl=1  erefs: 0.17977+309
L=1  Nkbl=1  erefs: 0.17977+309
===============================================================================
</basis_specs>

Using PAO.SplitTailNorm
atom: Called for H                     (Z =   1)
Maximum radius (at nrval) set to   50.00000 8518

read_vps: Pseudopotential generation method:
read_vps: ONCVPSP-3.Hamann's oncvpsp                        
Valence charge in pseudo generation:    1.00000

xc_check: Exchange-correlation functional:
xc_check: GGA Perdew, Burke & Ernzerhof 1996
Got Vlocal (oncv-fit) from psml data
Choosing vlocal chloc cutoff:  1.926399
qtot up to nchloc:    0.99999831
atom: Maximum radius for chlocal:    1.92640
atom: Maximum radius for r*vlocal+2*Zval:    1.92640
Reading KB projs from H psml data
Using scalar-relativistic projectors in PSML file

PSML: Kleinman-Bylander projectors: 
   l= 0   rc=  1.022342   Ekb= -3.402247
   l= 0   rc=  1.022342   Ekb= -1.068968
   l= 1   rc=  0.714575   Ekb= -1.006642

PSML: Total number of  Kleinman-Bylander projectors:   5
atom: -------------------------------------------------------------------------

atom: SANKEY-TYPE ORBITALS:
atom: Selected multiple-zeta basis: split     

SPLIT: Orbitals with angular momentum L= 0

SPLIT: Basis orbitals for state 1s

SPLIT: PAO cut-off radius determined from an
SPLIT: energy shift=  0.000735 Ry
Split based on tail norm

   izeta = 1
                 lambda =    1.000000
                     rc =    7.238756
                 energy =   -0.476315
                kinetic =    0.887622
    potential(screened) =   -1.363936
       potential(ionic) =   -1.882865

   izeta = 2
                 rmatch =    4.044510
              splitnorm =    0.150000
                 energy =   -0.376652
                kinetic =    1.480380
    potential(screened) =   -1.857033
       potential(ionic) =   -2.405174

POLgen: Perturbative polarization orbital with L=  1

POLgen: Polarization orbital for state 1s
Split based on tail norm

   izeta = 1
                     rc =    7.238756
                 energy =    0.508786
                kinetic =    1.081322
    potential(screened) =   -0.572537
       potential(ionic) =   -1.035092
atom: Total number of Sankey-type orbitals:  5

atm_pop: Valence configuration (for local Pseudopot. screening):
 1s( 1.00)                                                            
 2p( 0.00)                                                            
Vna: chval, zval:    1.00000   1.00000

Vna:  Cut-off radius for the neutral-atom potential:   7.238756

atom: _________________________________________________________________________

<basis_specs>
===============================================================================
O                    Z=   8    Mass=  15.999        Charge= 0.17977+309
Lmxo=2 Lmxkb= 2    BasisType=split      Semic=F
L=0  Nsemic=0  Cnfigmx=2
          i=1  nzeta=2  polorb=0  (2s)
            splnorm:   0.15000    
               vcte:    40.000    
               rinn:  -0.90000    
               qcoe:    0.0000    
               qyuk:    0.0000    
               qwid:   0.10000E-01
                rcs:    0.0000      0.0000    
            lambdas:    1.0000      1.0000    
L=1  Nsemic=0  Cnfigmx=2
          i=1  nzeta=2  polorb=1  (2p)  (to be polarized perturbatively)
            splnorm:   0.15000    
               vcte:    40.000    
               rinn:  -0.90000    
               qcoe:    0.0000    
               qyuk:    0.0000    
               qwid:   0.10000E-01
                rcs:    0.0000      0.0000    
            lambdas:    1.0000      1.0000    
L=2  Nsemic=0  Cnfigmx=3
          i=1  nzeta=0  polorb=0  (3d)  (perturbative polarization orbital) (from 2p)
-------------------------------------------------------------------------------
L=0  Nkbl=1  erefs: 0.17977+309
L=1  Nkbl=1  erefs: 0.17977+309
L=2  Nkbl=1  erefs: 0.17977+309
===============================================================================
</basis_specs>

Using PAO.SplitTailNorm
atom: Called for O                     (Z =   8)
Maximum radius (at nrval) set to   50.00000 8518

read_vps: Pseudopotential generation method:
read_vps: ONCVPSP-3.Hamann's oncvpsp                        
Valence charge in pseudo generation:    6.00000

read_vps: Pseudopotential includes a core correction:
read_vps: Pseudo-core for xc-correction

xc_check: Exchange-correlation functional:
xc_check: GGA Perdew, Burke & Ernzerhof 1996
Got Vlocal (oncv-fit) from psml data
Choosing vlocal chloc cutoff:  6.020499
qtot up to nchloc:    6.00001015
atom: Maximum radius for chlocal:    6.02050
atom: Maximum radius for r*vlocal+2*Zval:    6.02050
Reading KB projs from O psml data
Using scalar-relativistic projectors in PSML file

PSML: Kleinman-Bylander projectors: 
   l= 0   rc=  1.372412   Ekb= 12.113471
   l= 0   rc=  1.372412   Ekb=  1.648048
   l= 1   rc=  1.474132   Ekb= -9.434259
   l= 1   rc=  1.474132   Ekb= -2.298541
   l= 2   rc=  1.277664   Ekb= -2.663910

PSML: Total number of  Kleinman-Bylander projectors:  13
atom: -------------------------------------------------------------------------

atom: SANKEY-TYPE ORBITALS:
atom: Selected multiple-zeta basis: split     

SPLIT: Orbitals with angular momentum L= 0

SPLIT: Basis orbitals for state 2s

SPLIT: PAO cut-off radius determined from an
SPLIT: energy shift=  0.000735 Ry
Split based on tail norm

   izeta = 1
                 lambda =    1.000000
                     rc =    4.566021
                 energy =   -1.760280
                kinetic =    1.535743
    potential(screened) =   -3.296022
       potential(ionic) =  -11.142033

   izeta = 2
                 rmatch =    2.434474
              splitnorm =    0.150000
                 energy =   -1.441584
                kinetic =    2.530209
    potential(screened) =   -3.971793
       potential(ionic) =  -12.502519

SPLIT: Orbitals with angular momentum L= 1

SPLIT: Basis orbitals for state 2p

SPLIT: PAO cut-off radius determined from an
SPLIT: energy shift=  0.000735 Ry
Split based on tail norm

   izeta = 1
                 lambda =    1.000000
                     rc =    5.912921
                 energy =   -0.662875
                kinetic =    4.463269
    potential(screened) =   -5.126144
       potential(ionic) =  -12.659411

   izeta = 2
                 rmatch =    3.103756
              splitnorm =    0.150000
                 energy =   -0.538095
                kinetic =    5.926477
    potential(screened) =   -6.464572
       potential(ionic) =  -14.688886

POLgen: Perturbative polarization orbital with L=  2

POLgen: Polarization orbital for state 2p
Split based on tail norm

   izeta = 1
                     rc =    5.912921
                 energy =    1.865729
                kinetic =    3.536681
    potential(screened) =   -1.670952
       potential(ionic) =   -7.378590
atom: Total number of Sankey-type orbitals: 13

atm_pop: Valence configuration (for local Pseudopot. screening):
 2s( 2.00)                                                            
 2p( 4.00)                                                            
 3d( 0.00)                                                            
Vna: chval, zval:    6.00000   6.00000

Vna:  Cut-off radius for the neutral-atom potential:   5.912921
comcore: Pseudo-core radius Rcore=  1.354557

atom: _________________________________________________________________________

prinput: Basis input 

PAO.BasisType split     

%block ChemicalSpeciesLabel
    1    7 N                       # Species index, atomic number, species label
    2    6 C                       # Species index, atomic number, species label
    3    1 H                       # Species index, atomic number, species label
    4    8 O                       # Species index, atomic number, species label
%endblock ChemicalSpeciesLabel

%block PAO.Basis                 # Define Basis set
# WARNING: This information might be incomplete!
N                     2                    # Species label, number of l-shells
 n=2   0   2                         # n, l, Nzeta 
   5.129      2.799   
   1.000      1.000   
 n=2   1   2 P   1                   # n, l, Nzeta, Polarization, NzetaPol
   6.615      3.582   
   1.000      1.000   
C                     2                    # Species label, number of l-shells
 n=2   0   2                         # n, l, Nzeta 
   5.866      3.303   
   1.000      1.000   
 n=2   1   2 P   1                   # n, l, Nzeta, Polarization, NzetaPol
   7.565      4.252   
   1.000      1.000   
H                     1                    # Species label, number of l-shells
 n=1   0   2 P   1                   # n, l, Nzeta, Polarization, NzetaPol
   7.239      4.045   
   1.000      1.000   
O                     2                    # Species label, number of l-shells
 n=2   0   2                         # n, l, Nzeta 
   4.566      2.434   
   1.000      1.000   
 n=2   1   2 P   1                   # n, l, Nzeta, Polarization, NzetaPol
   5.913      3.104   
   1.000      1.000   
%endblock PAO.Basis

prinput: ----------------------------------------------------------------------

Dumping basis to NetCDF file N.ion.nc
Dumping basis to NetCDF file C.ion.nc
Dumping basis to NetCDF file H.ion.nc
Dumping basis to NetCDF file O.ion.nc
coor:   Atomic-coordinates input format  =     Cartesian coordinates
coor:                                          (in Angstroms)

siesta: Atomic coordinates (Bohr) and species
siesta:      0.00000   0.00000   0.00000  1        1
siesta:     -2.83459   0.00000   0.00000  2        2
siesta:     -4.25188   2.45483   0.00000  2        3
siesta:     -2.83458   4.90966  -0.00043  2        4
siesta:      0.00001   4.90965  -0.00128  1        5
siesta:      1.41730   2.45482  -0.00213  2        6
siesta:     -5.89828   2.45463  -2.30743  2        7
siesta:     -7.90951   2.64902  -1.73598  3        8
siesta:     -5.42576   4.06473  -3.57099  3        9
siesta:     -5.70244   0.66886  -3.39649  3       10
siesta:     -3.77944   6.54621  -0.00014  3       11
siesta:      0.54916   5.85973   1.53718  3       12
siesta:      0.54869  -0.95169  -1.53763  3       13
siesta:      4.06291   2.45481  -0.00492  4       14
siesta:     -4.15740  -2.29117  -0.00000  4       15

siesta: System type = molecule  

initatomlists: Number of atoms, orbitals, and projectors:     15   147   112

coxmol: Writing XMOL coordinates into file optimization.xyz                                                                                                                                                                                                                    

siesta: ******************** Simulation parameters ****************************
siesta:
siesta: The following are some of the parameters of the simulation.
siesta: A complete list of the parameters used, including default values,
siesta: can be found in file out.fdf
siesta:
redata: Spin configuration                          = none
redata: Number of spin components                   = 1
redata: Time-Reversal Symmetry                      = T
redata: Spin spiral                                 = F
redata: Long output                                 =   F
redata: Number of Atomic Species                    =        4
redata: Charge density info will appear in .RHO file
redata: Write Mulliken charges (when)               = none
redata: Write Mulliken Pop.                         = NO
redata: Write Hirshfeld charges (when)              = none
redata: Write Voronoi charges (when)                = none
redata: Write spin charge (when)                    = none
redata: Matel table size (NRTAB)                    =     1024
redata: Mesh Cutoff                                 =   300.0000 Ry
redata: Net charge of the system                    =     0.0000 |e|
redata: Min. number of SCF Iter                     =        0
redata: Max. number of SCF Iter                     =     1000
redata: SCF convergence failure will abort job
redata: SCF mix quantity                            = Hamiltonian
redata: Mix DM or H after convergence               =   F
redata: Recompute H after scf cycle                 =   F
redata: Mix DM in first SCF step                    =   T
redata: Write Pulay info on disk                    =   F
redata: New DM Occupancy tolerance                  = 0.000000000001
redata: No kicks to SCF
redata: DM Mixing Weight for Kicks                  =     0.5000
redata: Require Harris convergence for SCF          =   F
redata: Harris energy tolerance for SCF             =     0.000100 eV
redata: Require DM convergence for SCF              =   T
redata: DM tolerance for SCF                        =     0.000100
redata: Require EDM convergence for SCF             =   F
redata: EDM tolerance for SCF                       =     0.001000 eV
redata: Require H convergence for SCF               =   T
redata: Hamiltonian tolerance for SCF               =     0.001000 eV
redata: Require (free) Energy convergence for SCF   =   F
redata: (free) Energy tolerance for SCF             =     0.000100 eV
redata: Using DFT-D3 dispersion                     =   F
redata: Using Saved Data (generic)                  =   F
redata: Use continuation files for DM               =   T
redata: Neglect nonoverlap interactions             =   F
redata: Method of Calculation                       = Diagonalization
redata: Electronic Temperature                      =   300.0000 K
redata: Fix the spin of the system                  =   F
redata: Max. number of TDED Iter                    =        1
redata: Number of TDED substeps                     =        3
redata: Dynamics option                             = CG coord. optimization
redata: Variable cell                               =   F
redata: Use continuation files for CG               =   F
redata: Max atomic displ per move                   =     0.1058 Ang
redata: Maximum number of optimization moves        =       15
redata: Force tolerance                             =     0.0050 eV/Ang
mix.SCF: Pulay mixing                            = Pulay
mix.SCF:    Variant                              = stable
mix.SCF:    History steps                        = 2
mix.SCF:    Linear mixing weight                 =     0.250000
mix.SCF:    Mixing weight                        =     0.250000
mix.SCF:    SVD condition                        = 0.1000E-07
redata: Save all siesta data in one NC              =   F
redata: ***********************************************************************

%block SCF.Mixers
  Pulay
%endblock SCF.Mixers

%block SCF.Mixer.Pulay
  # Mixing method
  method pulay
  variant stable

  # Mixing options
  weight 0.2500
  weight.linear 0.2500
  history 2
%endblock SCF.Mixer.Pulay

DM_history_depth set to one: no extrapolation allowed by default for geometry relaxation
Size of DM history Fstack: 1
Total number of electrons:    48.000000
Total ionic charge:    48.000000

siesta: k-grid: Number of k-points = 1
siesta: k-point is Gamma-only

diag: Algorithm                                     = D&C
diag: Used triangular part                          = Lower
diag: Absolute tolerance                            =  0.100E-15
diag: Orthogonalization factor                      =  0.100E-05
diag: Memory factor                                 =  1.0000


ts: **************************************************************
ts: Save H and S matrices                           =    F
ts: Save TSHS files in MD/FC simulation             =    F
ts: Save DM and EDM matrices                        =    F
ts: Only save the overlap matrix S                  =    F
ts: **************************************************************

************************ Begin: TS CHECKS AND WARNINGS ************************
************************ End: TS CHECKS AND WARNINGS **************************


                     ====================================
                        Begin CG opt. move =      0
                     ====================================

outcell: Unit cell vectors (Ang):
       16.335534    0.000000    0.000000
        0.000000   14.676542    0.000000
        0.000000    0.000000   12.703127

outcell: Cell vector modules (Ang)   :   16.335534   14.676542   12.703127
outcell: Cell angles (23,13,12) (deg):     90.0000     90.0000     90.0000
outcell: Cell volume (Ang**3)        :   3045.5639
<dSpData1D:S at geom step 0
  <sparsity:sparsity for geom step 0
    nrows_g=147 nrows=147 sparsity=.9725 nnzs=21015, refcount: 7>
  <dData1D:(new from dSpData1D) n=21015, refcount: 1>
refcount: 1>
new_DM -- step:     1
Initializing Density Matrix...

Attempting to read DM from file... Failed...
DM filled with atomic data:
<dSpData2D:DM initialized from atoms
  <sparsity:sparsity for geom step 0
    nrows_g=147 nrows=147 sparsity=.9725 nnzs=21015, refcount: 8>
  <dData2D:DM n=21015 m=1, refcount: 1>
refcount: 1>
No. of atoms with KB's overlaping orbs in proc 0. Max # of overlaps:      15     124

InitMesh: MESH = 180 x 160 x 144 = 4147200
InitMesh: Mesh cutoff (required, used) =   300.000   328.469 Ry
New grid distribution [1]: sub = 2

stepf: Fermi-Dirac step function

siesta: Program's energy decomposition (eV):
siesta: Ebs     =      -563.796326
siesta: Eions   =      3810.579487
siesta: Ena     =       850.358554
siesta: Ekin    =      1672.495664
siesta: Enl     =      -248.100689
siesta: Eso     =         0.000000
siesta: Edftu   =         0.000000
siesta: DEna    =      -100.059022
siesta: DUscf   =        20.058506
siesta: DUext   =         0.000000
siesta: Ex      =      -691.713890
siesta: Ec      =       -54.924057
siesta: Exc     =      -746.637947
siesta: EbV     =         0.000000
siesta: eta*DQ  =         0.000000
siesta: Emadel  =         0.000000
siesta: Emeta   =         0.000000
siesta: Emolmec =         0.000000
siesta: Ekinion =         0.000000
siesta: Eharris =     -2345.099423
siesta: Etot    =     -2362.464419
siesta: FreeEng =     -2362.464419

        iscf     Eharris(eV)        E_KS(eV)     FreeEng(eV)     dDmax    Ef(eV) dHmax(eV)
   scf:    1    -2345.099423    -2362.464419    -2362.464419  1.922364 -7.533683 11.425937
timer: Routine,Calls,Time,% = IterSCF        1       1.573  18.75
   scf:    2    -2371.762203    -2370.370022    -2370.370022  0.206775 -6.833349  4.705134
   scf:    3    -2371.394631    -2371.206283    -2371.206283  0.124789 -6.215834  2.478280
   scf:    4    -2371.321703    -2371.374629    -2371.374629  0.054560 -5.857064  1.387285
   scf:    5    -2371.388592    -2371.437123    -2371.437123  0.049916 -5.628667  0.950361
   scf:    6    -2371.451445    -2371.458150    -2371.458150  0.020751 -5.579062  0.428319
   scf:    7    -2371.465475    -2371.463411    -2371.463411  0.008022 -5.526528  0.227236
   scf:    8    -2371.466101    -2371.465251    -2371.465251  0.007570 -5.474906  0.167278
   scf:    9    -2371.465755    -2371.466157    -2371.466157  0.006938 -5.430345  0.112120
   scf:   10    -2371.466278    -2371.466460    -2371.466460  0.003369 -5.427064  0.049878
   scf:   11    -2371.466576    -2371.466539    -2371.466539  0.000794 -5.421882  0.027924
   scf:   12    -2371.466586    -2371.466565    -2371.466565  0.000864 -5.415647  0.020667
   scf:   13    -2371.466582    -2371.466581    -2371.466581  0.001164 -5.407257  0.011651
   scf:   14    -2371.466582    -2371.466585    -2371.466585  0.000357 -5.407415  0.004418
   scf:   15    -2371.466586    -2371.466586    -2371.466586  0.000079 -5.406879  0.002203
   scf:   16    -2371.466586    -2371.466586    -2371.466586  0.000076 -5.406325  0.001392
   scf:   17    -2371.466586    -2371.466586    -2371.466586  0.000119 -5.405502  0.000594
   scf:   18    -2371.466586    -2371.466586    -2371.466586  0.000014 -5.405578  0.000206

SCF Convergence by DM+H criterion
max |DM_out - DM_in|         :     0.0000137820
max |H_out - H_in|      (eV) :     0.0002064666
SCF cycle converged after 18 iterations

Using DM_out to compute the final energy and forces
No. of atoms with KB's overlaping orbs in proc 0. Max # of overlaps:      15     124

siesta: E_KS(eV) =            -2371.4666

siesta: E_KS - E_eggbox =     -2371.4666

siesta: Atomic forces (eV/Ang):
----------------------------------------
   Tot    0.000620    0.011524    0.003261
----------------------------------------
   Max    9.034051
   Res    2.810271    sqrt( Sum f_i^2 / 3N )
----------------------------------------
   Max    9.034051    constrained

Stress tensor Voigt[x,y,z,yz,xz,xy] (kbar):        8.88        6.09       -1.41       -1.35       -2.19        4.10
(Free)E + p*V (eV/cell)    -2380.0523
Target enthalpy (eV/cell)    -2371.4666

                     ====================================
                        Begin CG opt. move =      1
                     ====================================

outcell: Unit cell vectors (Ang):
       16.335534    0.000000    0.000000
        0.000000   14.676542    0.000000
        0.000000    0.000000   12.703127

outcell: Cell vector modules (Ang)   :   16.335534   14.676542   12.703127
outcell: Cell angles (23,13,12) (deg):     90.0000     90.0000     90.0000
outcell: Cell volume (Ang**3)        :   3045.5639
<dSpData1D:S at geom step 1
  <sparsity:sparsity for geom step 1
    nrows_g=147 nrows=147 sparsity=.9771 nnzs=21115, refcount: 7>
  <dData1D:(new from dSpData1D) n=21115, refcount: 1>
refcount: 1>
new_DM -- step:     2
Re-using DM from previous geometries...
Number of DMs in history: 1
 DM extrapolation coefficients: 
1   1.00000
New DM after history re-use:
<dSpData2D:SpM extrapolated using coords
  <sparsity:sparsity for geom step 1
    nrows_g=147 nrows=147 sparsity=.9771 nnzs=21115, refcount: 9>
  <dData2D:(temp array for extrapolation) n=21115 m=1, refcount: 1>
refcount: 1>
Note: For starting DM, Qtot, Tr[D*S] =         48.00000000         48.08175197
No. of atoms with KB's overlaping orbs in proc 0. Max # of overlaps:      15     128

InitMesh: MESH = 180 x 160 x 144 = 4147200
InitMesh: Mesh cutoff (required, used) =   300.000   328.469 Ry
New grid distribution [1]: sub = 2

        iscf     Eharris(eV)        E_KS(eV)     FreeEng(eV)     dDmax    Ef(eV) dHmax(eV)
   scf:    1    -2371.646990    -2372.774047    -2372.774047  0.154700 -5.072709  1.876648
   scf:    2    -2364.293814    -2370.298232    -2370.298232  0.220981 -4.819923  6.090332
   scf:    3    -2373.608727    -2373.023504    -2373.023504  0.172103 -5.193524  0.202931
   scf:    4    -2373.029494    -2373.027013    -2373.027013  0.004678 -4.311471  0.131134
   scf:    5    -2373.028812    -2373.028065    -2373.028065  0.003431 -4.326810  0.041987
   scf:    6    -2373.028388    -2373.028253    -2373.028253  0.001830 -4.330154  0.025890
   scf:    7    -2373.028320    -2373.028290    -2373.028290  0.000877 -4.330165  0.012986
   scf:    8    -2373.028322    -2373.028308    -2373.028308  0.000780 -4.330370  0.006544
   scf:    9    -2373.028315    -2373.028312    -2373.028312  0.000528 -4.330362  0.001808
   scf:   10    -2373.028312    -2373.028312    -2373.028312  0.000079 -4.330381  0.001013
   scf:   11    -2373.028312    -2373.028312    -2373.028312  0.000044 -4.330372  0.000767

SCF Convergence by DM+H criterion
max |DM_out - DM_in|         :     0.0000436323
max |H_out - H_in|      (eV) :     0.0007672583
SCF cycle converged after 11 iterations

Using DM_out to compute the final energy and forces
No. of atoms with KB's overlaping orbs in proc 0. Max # of overlaps:      15     128

siesta: E_KS(eV) =            -2373.0283

siesta: Atomic forces (eV/Ang):
----------------------------------------
   Tot   -0.009839    0.004180    0.002335
----------------------------------------
   Max    5.808240
   Res    1.696305    sqrt( Sum f_i^2 / 3N )
----------------------------------------
   Max    5.808240    constrained

Stress tensor Voigt[x,y,z,yz,xz,xy] (kbar):        6.88        5.76       -0.29       -0.71       -1.85        2.52
(Free)E + p*V (eV/cell)    -2380.8510
Target enthalpy (eV/cell)    -2373.0283

                     ====================================
                        Begin CG opt. move =      2
                     ====================================

outcell: Unit cell vectors (Ang):
       16.335534    0.000000    0.000000
        0.000000   14.676542    0.000000
        0.000000    0.000000   12.703127

outcell: Cell vector modules (Ang)   :   16.335534   14.676542   12.703127
outcell: Cell angles (23,13,12) (deg):     90.0000     90.0000     90.0000
outcell: Cell volume (Ang**3)        :   3045.5639
<dSpData1D:S at geom step 2
  <sparsity:sparsity for geom step 2
    nrows_g=147 nrows=147 sparsity=.9770 nnzs=21113, refcount: 7>
  <dData1D:(new from dSpData1D) n=21113, refcount: 1>
refcount: 1>
new_DM -- step:     3
Re-using DM from previous geometries...
Number of DMs in history: 1
 DM extrapolation coefficients: 
1   1.00000
New DM after history re-use:
<dSpData2D:SpM extrapolated using coords
  <sparsity:sparsity for geom step 2
    nrows_g=147 nrows=147 sparsity=.9770 nnzs=21113, refcount: 9>
  <dData2D:(temp array for extrapolation) n=21113 m=1, refcount: 1>
refcount: 1>
Note: For starting DM, Qtot, Tr[D*S] =         48.00000000         48.08746865
No. of atoms with KB's overlaping orbs in proc 0. Max # of overlaps:      15     128

InitMesh: MESH = 180 x 160 x 144 = 4147200
InitMesh: Mesh cutoff (required, used) =   300.000   328.469 Ry
New grid distribution [1]: sub = 2

        iscf     Eharris(eV)        E_KS(eV)     FreeEng(eV)     dDmax    Ef(eV) dHmax(eV)
   scf:    1    -2369.532852    -2372.859730    -2372.859730  0.300688 -3.855725  3.319995
   scf:    2    -2351.764734    -2366.832385    -2366.832385  0.334054 -3.703402  9.529071
   scf:    3    -2375.253983    -2373.625617    -2373.625617  0.261178 -4.311379  0.429043
   scf:    4    -2373.646448    -2373.638011    -2373.638011  0.008066 -4.381193  0.248609
   scf:    5    -2373.642873    -2373.640795    -2373.640795  0.005844 -4.422135  0.087734
   scf:    6    -2373.641727    -2373.641297    -2373.641297  0.003322 -4.433327  0.031425
   scf:    7    -2373.641509    -2373.641413    -2373.641413  0.002148 -4.437228  0.007403
   scf:    8    -2373.641433    -2373.641424    -2373.641424  0.000787 -4.437192  0.002988
   scf:    9    -2373.641428    -2373.641426    -2373.641426  0.000318 -4.436909  0.002809
   scf:   10    -2373.641427    -2373.641427    -2373.641427  0.000077 -4.436788  0.001771
   scf:   11    -2373.641427    -2373.641427    -2373.641427  0.000094 -4.436721  0.000489

SCF Convergence by DM+H criterion
max |DM_out - DM_in|         :     0.0000944696
max |H_out - H_in|      (eV) :     0.0004891799
SCF cycle converged after 11 iterations

Using DM_out to compute the final energy and forces
No. of atoms with KB's overlaping orbs in proc 0. Max # of overlaps:      15     128

siesta: E_KS(eV) =            -2373.6414

siesta: Atomic forces (eV/Ang):
----------------------------------------
   Tot    0.001848    0.003367    0.002042
----------------------------------------
   Max    3.493395
   Res    1.243770    sqrt( Sum f_i^2 / 3N )
----------------------------------------
   Max    3.493395    constrained

Stress tensor Voigt[x,y,z,yz,xz,xy] (kbar):        0.64        2.66        1.18        0.09       -1.28       -0.56
(Free)E + p*V (eV/cell)    -2376.4780
Target enthalpy (eV/cell)    -2373.6414

                     ====================================
                        Begin CG opt. move =      3
                     ====================================

outcell: Unit cell vectors (Ang):
       16.335534    0.000000    0.000000
        0.000000   14.676542    0.000000
        0.000000    0.000000   12.703127

outcell: Cell vector modules (Ang)   :   16.335534   14.676542   12.703127
outcell: Cell angles (23,13,12) (deg):     90.0000     90.0000     90.0000
outcell: Cell volume (Ang**3)        :   3045.5639
<dSpData1D:S at geom step 3
  <sparsity:sparsity for geom step 3
    nrows_g=147 nrows=147 sparsity=.9770 nnzs=21113, refcount: 7>
  <dData1D:(new from dSpData1D) n=21113, refcount: 1>
refcount: 1>
new_DM -- step:     4
Re-using DM from previous geometries...
Number of DMs in history: 1
 DM extrapolation coefficients: 
1   1.00000
New DM after history re-use:
<dSpData2D:SpM extrapolated using coords
  <sparsity:sparsity for geom step 3
    nrows_g=147 nrows=147 sparsity=.9770 nnzs=21113, refcount: 9>
  <dData2D:(temp array for extrapolation) n=21113 m=1, refcount: 1>
refcount: 1>
No. of atoms with KB's overlaping orbs in proc 0. Max # of overlaps:      15     128

InitMesh: MESH = 180 x 160 x 144 = 4147200
InitMesh: Mesh cutoff (required, used) =   300.000   328.469 Ry
New grid distribution [1]: sub = 2

        iscf     Eharris(eV)        E_KS(eV)     FreeEng(eV)     dDmax    Ef(eV) dHmax(eV)
   scf:    1    -2373.948356    -2373.640742    -2373.640742  0.087046 -4.548744  1.099231
   scf:    2    -2370.885919    -2372.837159    -2372.837159  0.101548 -4.098635  3.519927
   scf:    3    -2373.906360    -2373.724550    -2373.724550  0.074175 -4.391461  0.145061
   scf:    4    -2373.725712    -2373.725195    -2373.725195  0.001738 -4.377683  0.074871
   scf:    5    -2373.725630    -2373.725434    -2373.725434  0.001998 -4.368727  0.023526
   scf:    6    -2373.725497    -2373.725469    -2373.725469  0.001067 -4.366623  0.004670
   scf:    7    -2373.725476    -2373.725472    -2373.725472  0.000492 -4.366613  0.001765
   scf:    8    -2373.725474    -2373.725473    -2373.725473  0.000209 -4.366808  0.001673
   scf:    9    -2373.725473    -2373.725473    -2373.725473  0.000042 -4.366889  0.001073
   scf:   10    -2373.725473    -2373.725473    -2373.725473  0.000045 -4.366930  0.000371

SCF Convergence by DM+H criterion
max |DM_out - DM_in|         :     0.0000452141
max |H_out - H_in|      (eV) :     0.0003714132
SCF cycle converged after 10 iterations

Using DM_out to compute the final energy and forces
No. of atoms with KB's overlaping orbs in proc 0. Max # of overlaps:      15     128

siesta: E_KS(eV) =            -2373.7255

siesta: Atomic forces (eV/Ang):
----------------------------------------
   Tot    0.007037    0.002550    0.002071
----------------------------------------
   Max    2.109039
   Res    0.931096    sqrt( Sum f_i^2 / 3N )
----------------------------------------
   Max    2.109039    constrained

Stress tensor Voigt[x,y,z,yz,xz,xy] (kbar):        2.80        3.86        0.81       -0.10       -1.44        0.40
(Free)E + p*V (eV/cell)    -2378.4576
Target enthalpy (eV/cell)    -2373.7255

cgvc: Finished line minimization    1.  Mean atomic displacement =    0.1113

                     ====================================
                        Begin CG opt. move =      4
                     ====================================

outcell: Unit cell vectors (Ang):
       16.335534    0.000000    0.000000
        0.000000   14.676542    0.000000
        0.000000    0.000000   12.703127

outcell: Cell vector modules (Ang)   :   16.335534   14.676542   12.703127
outcell: Cell angles (23,13,12) (deg):     90.0000     90.0000     90.0000
outcell: Cell volume (Ang**3)        :   3045.5639
<dSpData1D:S at geom step 4
  <sparsity:sparsity for geom step 4
    nrows_g=147 nrows=147 sparsity=.9884 nnzs=21359, refcount: 7>
  <dData1D:(new from dSpData1D) n=21359, refcount: 1>
refcount: 1>
new_DM -- step:     5
Re-using DM from previous geometries...
Number of DMs in history: 1
 DM extrapolation coefficients: 
1   1.00000
New DM after history re-use:
<dSpData2D:SpM extrapolated using coords
  <sparsity:sparsity for geom step 4
    nrows_g=147 nrows=147 sparsity=.9884 nnzs=21359, refcount: 9>
  <dData2D:(temp array for extrapolation) n=21359 m=1, refcount: 1>
refcount: 1>
Note: For starting DM, Qtot, Tr[D*S] =         48.00000000         48.18138167
No. of atoms with KB's overlaping orbs in proc 0. Max # of overlaps:      15     134

InitMesh: MESH = 180 x 160 x 144 = 4147200
InitMesh: Mesh cutoff (required, used) =   300.000   328.469 Ry
New grid distribution [1]: sub = 2

        iscf     Eharris(eV)        E_KS(eV)     FreeEng(eV)     dDmax    Ef(eV) dHmax(eV)
   scf:    1    -2371.317712    -2374.148934    -2374.148934  0.189234 -4.696680  1.163295
   scf:    2    -2372.710497    -2373.800886    -2373.800886  0.062568 -3.948640  2.219722
   scf:    3    -2374.450115    -2374.291381    -2374.291381  0.040509 -3.800834  0.093393
   scf:    4    -2374.293111    -2374.292331    -2374.292331  0.001937 -3.799491  0.059943
   scf:    5    -2374.293052    -2374.292721    -2374.292721  0.001733 -3.799933  0.022450
   scf:    6    -2374.292875    -2374.292806    -2374.292806  0.001058 -3.800350  0.008061
   scf:    7    -2374.292821    -2374.292814    -2374.292814  0.000314 -3.800510  0.003077
   scf:    8    -2374.292819    -2374.292816    -2374.292816  0.000222 -3.800326  0.001426
   scf:    9    -2374.292817    -2374.292817    -2374.292817  0.000107 -3.800098  0.000889
   scf:   10    -2374.292817    -2374.292817    -2374.292817  0.000032 -3.799951  0.000533

SCF Convergence by DM+H criterion
max |DM_out - DM_in|         :     0.0000321614
max |H_out - H_in|      (eV) :     0.0005329595
SCF cycle converged after 10 iterations

Using DM_out to compute the final energy and forces
No. of atoms with KB's overlaping orbs in proc 0. Max # of overlaps:      15     134

siesta: E_KS(eV) =            -2374.2928

siesta: Atomic forces (eV/Ang):
----------------------------------------
   Tot   -0.000731   -0.000231    0.001659
----------------------------------------
   Max    5.095686
   Res    1.486035    sqrt( Sum f_i^2 / 3N )
----------------------------------------
   Max    5.095686    constrained

Stress tensor Voigt[x,y,z,yz,xz,xy] (kbar):       -2.91       -0.65        0.03       -0.45       -1.30        0.07
(Free)E + p*V (eV/cell)    -2372.0580
Target enthalpy (eV/cell)    -2374.2928

                     ====================================
                        Begin CG opt. move =      5
                     ====================================

outcell: Unit cell vectors (Ang):
       16.335534    0.000000    0.000000
        0.000000   14.676542    0.000000
        0.000000    0.000000   12.703127

outcell: Cell vector modules (Ang)   :   16.335534   14.676542   12.703127
outcell: Cell angles (23,13,12) (deg):     90.0000     90.0000     90.0000
outcell: Cell volume (Ang**3)        :   3045.5639
<dSpData1D:S at geom step 5
  <sparsity:sparsity for geom step 5
    nrows_g=147 nrows=147 sparsity=.9862 nnzs=21311, refcount: 7>
  <dData1D:(new from dSpData1D) n=21311, refcount: 1>
refcount: 1>
new_DM -- step:     6
Re-using DM from previous geometries...
Number of DMs in history: 1
 DM extrapolation coefficients: 
1   1.00000
New DM after history re-use:
<dSpData2D:SpM extrapolated using coords
  <sparsity:sparsity for geom step 5
    nrows_g=147 nrows=147 sparsity=.9862 nnzs=21311, refcount: 9>
  <dData2D:(temp array for extrapolation) n=21311 m=1, refcount: 1>
refcount: 1>
No. of atoms with KB's overlaping orbs in proc 0. Max # of overlaps:      15     131

InitMesh: MESH = 180 x 160 x 144 = 4147200
InitMesh: Mesh cutoff (required, used) =   300.000   328.469 Ry
New grid distribution [1]: sub = 2

        iscf     Eharris(eV)        E_KS(eV)     FreeEng(eV)     dDmax    Ef(eV) dHmax(eV)
   scf:    1    -2374.801730    -2374.315003    -2374.315003  0.032452 -3.921690  0.189031
   scf:    2    -2374.253848    -2374.299494    -2374.299494  0.013222 -3.906924  0.419218
   scf:    3    -2374.326147    -2374.320032    -2374.320032  0.009238 -3.913249  0.023554
   scf:    4    -2374.320106    -2374.320072    -2374.320072  0.000441 -3.913197  0.012384
   scf:    5    -2374.320103    -2374.320089    -2374.320089  0.000404 -3.913473  0.003536
   scf:    6    -2374.320093    -2374.320091    -2374.320091  0.000148 -3.913507  0.001461
   scf:    7    -2374.320092    -2374.320092    -2374.320092  0.000081 -3.913525  0.000680

SCF Convergence by DM+H criterion
max |DM_out - DM_in|         :     0.0000814125
max |H_out - H_in|      (eV) :     0.0006800146
SCF cycle converged after 7 iterations

Using DM_out to compute the final energy and forces
No. of atoms with KB's overlaping orbs in proc 0. Max # of overlaps:      15     131

siesta: E_KS(eV) =            -2374.3201

siesta: Atomic forces (eV/Ang):
----------------------------------------
   Tot   -0.000060    0.001473    0.001220
----------------------------------------
   Max    4.239774
   Res    1.164637    sqrt( Sum f_i^2 / 3N )
----------------------------------------
   Max    4.239774    constrained

Stress tensor Voigt[x,y,z,yz,xz,xy] (kbar):       -1.67        0.39        0.14       -0.40       -1.32        0.14
(Free)E + p*V (eV/cell)    -2373.6017
Target enthalpy (eV/cell)    -2374.3201

cgvc: Finished line minimization    2.  Mean atomic displacement =    0.0901

                     ====================================
                        Begin CG opt. move =      6
                     ====================================

outcell: Unit cell vectors (Ang):
       16.335534    0.000000    0.000000
        0.000000   14.676542    0.000000
        0.000000    0.000000   12.703127

outcell: Cell vector modules (Ang)   :   16.335534   14.676542   12.703127
outcell: Cell angles (23,13,12) (deg):     90.0000     90.0000     90.0000
outcell: Cell volume (Ang**3)        :   3045.5639
<dSpData1D:S at geom step 6
  <sparsity:sparsity for geom step 6
    nrows_g=147 nrows=147 sparsity=.9892 nnzs=21375, refcount: 7>
  <dData1D:(new from dSpData1D) n=21375, refcount: 1>
refcount: 1>
new_DM -- step:     7
Re-using DM from previous geometries...
Number of DMs in history: 1
 DM extrapolation coefficients: 
1   1.00000
New DM after history re-use:
<dSpData2D:SpM extrapolated using coords
  <sparsity:sparsity for geom step 6
    nrows_g=147 nrows=147 sparsity=.9892 nnzs=21375, refcount: 9>
  <dData2D:(temp array for extrapolation) n=21375 m=1, refcount: 1>
refcount: 1>
No. of atoms with KB's overlaping orbs in proc 0. Max # of overlaps:      15     134

InitMesh: MESH = 180 x 160 x 144 = 4147200
InitMesh: Mesh cutoff (required, used) =   300.000   328.469 Ry
New grid distribution [1]: sub = 2

        iscf     Eharris(eV)        E_KS(eV)     FreeEng(eV)     dDmax    Ef(eV) dHmax(eV)
   scf:    1    -2370.984441    -2373.751240    -2373.751240  0.303655 -4.952597  4.273768
   scf:    2    -2327.114638    -2359.689252    -2359.689252  0.528743 -4.161386 15.662907
   scf:    3    -2376.944564    -2374.712950    -2374.712950  0.455177 -4.754333  0.644678
   scf:    4    -2374.744522    -2374.733500    -2374.733500  0.014920 -4.734653  0.153562
   scf:    5    -2374.737202    -2374.735652    -2374.735652  0.007044 -4.726257  0.051618
   scf:    6    -2374.736424    -2374.736066    -2374.736066  0.004121 -4.723243  0.023754
   scf:    7    -2374.736217    -2374.736151    -2374.736151  0.002973 -4.721978  0.008031
   scf:    8    -2374.736159    -2374.736155    -2374.736155  0.000509 -4.722086  0.003749
   scf:    9    -2374.736159    -2374.736157    -2374.736157  0.000534 -4.722220  0.001148
   scf:   10    -2374.736158    -2374.736158    -2374.736158  0.000061 -4.722227  0.000681

SCF Convergence by DM+H criterion
max |DM_out - DM_in|         :     0.0000611335
max |H_out - H_in|      (eV) :     0.0006812536
SCF cycle converged after 10 iterations

Using DM_out to compute the final energy and forces
No. of atoms with KB's overlaping orbs in proc 0. Max # of overlaps:      15     134

siesta: E_KS(eV) =            -2374.7362

siesta: Atomic forces (eV/Ang):
----------------------------------------
   Tot    0.002864   -0.001723    0.003317
----------------------------------------
   Max    3.025526
   Res    0.919196    sqrt( Sum f_i^2 / 3N )
----------------------------------------
   Max    3.025526    constrained

Stress tensor Voigt[x,y,z,yz,xz,xy] (kbar):       -0.90       -1.00        0.06       -0.26       -1.26        1.05
(Free)E + p*V (eV/cell)    -2373.5725
Target enthalpy (eV/cell)    -2374.7362

                     ====================================
                        Begin CG opt. move =      7
                     ====================================

outcell: Unit cell vectors (Ang):
       16.335534    0.000000    0.000000
        0.000000   14.676542    0.000000
        0.000000    0.000000   12.703127

outcell: Cell vector modules (Ang)   :   16.335534   14.676542   12.703127
outcell: Cell angles (23,13,12) (deg):     90.0000     90.0000     90.0000
outcell: Cell volume (Ang**3)        :   3045.5639
<dSpData1D:S at geom step 7
  <sparsity:sparsity for geom step 7
    nrows_g=147 nrows=147 sparsity=.9892 nnzs=21375, refcount: 7>
  <dData1D:(new from dSpData1D) n=21375, refcount: 1>
refcount: 1>
new_DM -- step:     8
Re-using DM from previous geometries...
Number of DMs in history: 1
 DM extrapolation coefficients: 
1   1.00000
New DM after history re-use:
<dSpData2D:SpM extrapolated using coords
  <sparsity:sparsity for geom step 7
    nrows_g=147 nrows=147 sparsity=.9892 nnzs=21375, refcount: 9>
  <dData2D:(temp array for extrapolation) n=21375 m=1, refcount: 1>
refcount: 1>
No. of atoms with KB's overlaping orbs in proc 0. Max # of overlaps:      15     134

InitMesh: MESH = 180 x 160 x 144 = 4147200
InitMesh: Mesh cutoff (required, used) =   300.000   328.469 Ry
New grid distribution [1]: sub = 2

        iscf     Eharris(eV)        E_KS(eV)     FreeEng(eV)     dDmax    Ef(eV) dHmax(eV)
   scf:    1    -2374.772646    -2374.731023    -2374.731023  0.031043 -4.794565  0.418343
   scf:    2    -2374.385729    -2374.630189    -2374.630189  0.042410 -4.818525  1.338621
   scf:    3    -2374.765983    -2374.740881    -2374.740881  0.032103 -4.800015  0.013560
   scf:    4    -2374.740935    -2374.740910    -2374.740910  0.000654 -4.801258  0.009129
   scf:    5    -2374.740935    -2374.740925    -2374.740925  0.000753 -4.802576  0.002527
   scf:    6    -2374.740927    -2374.740926    -2374.740926  0.000225 -4.802737  0.001561
   scf:    7    -2374.740926    -2374.740926    -2374.740926  0.000144 -4.802740  0.000518
   scf:    8    -2374.740926    -2374.740926    -2374.740926  0.000037 -4.802692  0.000212

SCF Convergence by DM+H criterion
max |DM_out - DM_in|         :     0.0000374357
max |H_out - H_in|      (eV) :     0.0002116294
SCF cycle converged after 8 iterations

Using DM_out to compute the final energy and forces
No. of atoms with KB's overlaping orbs in proc 0. Max # of overlaps:      15     134

siesta: E_KS(eV) =            -2374.7409

siesta: Atomic forces (eV/Ang):
----------------------------------------
   Tot    0.003451   -0.001260    0.002979
----------------------------------------
   Max    2.906282
   Res    0.832148    sqrt( Sum f_i^2 / 3N )
----------------------------------------
   Max    2.906282    constrained

Stress tensor Voigt[x,y,z,yz,xz,xy] (kbar):       -0.90       -0.81        0.06       -0.28       -1.27        0.97
(Free)E + p*V (eV/cell)    -2373.6941
Target enthalpy (eV/cell)    -2374.7409

cgvc: Finished line minimization    3.  Mean atomic displacement =    0.0815

                     ====================================
                        Begin CG opt. move =      8
                     ====================================

outcell: Unit cell vectors (Ang):
       16.335534    0.000000    0.000000
        0.000000   14.676542    0.000000
        0.000000    0.000000   12.703127

outcell: Cell vector modules (Ang)   :   16.335534   14.676542   12.703127
outcell: Cell angles (23,13,12) (deg):     90.0000     90.0000     90.0000
outcell: Cell volume (Ang**3)        :   3045.5639
<dSpData1D:S at geom step 8
  <sparsity:sparsity for geom step 8
    nrows_g=147 nrows=147 sparsity=.9896 nnzs=21385, refcount: 7>
  <dData1D:(new from dSpData1D) n=21385, refcount: 1>
refcount: 1>
new_DM -- step:     9
Re-using DM from previous geometries...
Number of DMs in history: 1
 DM extrapolation coefficients: 
1   1.00000
New DM after history re-use:
<dSpData2D:SpM extrapolated using coords
  <sparsity:sparsity for geom step 8
    nrows_g=147 nrows=147 sparsity=.9896 nnzs=21385, refcount: 9>
  <dData2D:(temp array for extrapolation) n=21385 m=1, refcount: 1>
refcount: 1>
No. of atoms with KB's overlaping orbs in proc 0. Max # of overlaps:      15     134

InitMesh: MESH = 180 x 160 x 144 = 4147200
InitMesh: Mesh cutoff (required, used) =   300.000   328.469 Ry
New grid distribution [1]: sub = 2

        iscf     Eharris(eV)        E_KS(eV)     FreeEng(eV)     dDmax    Ef(eV) dHmax(eV)
   scf:    1    -2373.886122    -2374.886801    -2374.886801  0.123587 -4.232408  1.031999
   scf:    2    -2373.318272    -2374.440976    -2374.440976  0.096609 -4.513393  3.462098
   scf:    3    -2375.060163    -2374.950426    -2374.950426  0.077375 -4.300563  0.093508
   scf:    4    -2374.952477    -2374.951530    -2374.951530  0.001566 -4.306362  0.063334
   scf:    5    -2374.952415    -2374.952018    -2374.952018  0.001809 -4.309584  0.020384
   scf:    6    -2374.952113    -2374.952071    -2374.952071  0.000770 -4.310161  0.004656
   scf:    7    -2374.952078    -2374.952075    -2374.952075  0.000245 -4.310087  0.001923
   scf:    8    -2374.952077    -2374.952076    -2374.952076  0.000135 -4.310117  0.001259
   scf:    9    -2374.952077    -2374.952076    -2374.952076  0.000050 -4.310217  0.000800

SCF Convergence by DM+H criterion
max |DM_out - DM_in|         :     0.0000495366
max |H_out - H_in|      (eV) :     0.0007996754
SCF cycle converged after 9 iterations

Using DM_out to compute the final energy and forces
No. of atoms with KB's overlaping orbs in proc 0. Max # of overlaps:      15     134

siesta: E_KS(eV) =            -2374.9521

siesta: Atomic forces (eV/Ang):
----------------------------------------
   Tot   -0.000998   -0.000368    0.003651
----------------------------------------
   Max    2.519195
   Res    0.826299    sqrt( Sum f_i^2 / 3N )
----------------------------------------
   Max    2.519195    constrained

Stress tensor Voigt[x,y,z,yz,xz,xy] (kbar):       -3.99       -1.99        0.11       -0.45       -1.27       -0.73
(Free)E + p*V (eV/cell)    -2371.2308
Target enthalpy (eV/cell)    -2374.9521

                     ====================================
                        Begin CG opt. move =      9
                     ====================================

outcell: Unit cell vectors (Ang):
       16.335534    0.000000    0.000000
        0.000000   14.676542    0.000000
        0.000000    0.000000   12.703127

outcell: Cell vector modules (Ang)   :   16.335534   14.676542   12.703127
outcell: Cell angles (23,13,12) (deg):     90.0000     90.0000     90.0000
outcell: Cell volume (Ang**3)        :   3045.5639
<dSpData1D:S at geom step 9
  <sparsity:sparsity for geom step 9
    nrows_g=147 nrows=147 sparsity=.9892 nnzs=21375, refcount: 7>
  <dData1D:(new from dSpData1D) n=21375, refcount: 1>
refcount: 1>
new_DM -- step:    10
Re-using DM from previous geometries...
Number of DMs in history: 1
 DM extrapolation coefficients: 
1   1.00000
New DM after history re-use:
<dSpData2D:SpM extrapolated using coords
  <sparsity:sparsity for geom step 9
    nrows_g=147 nrows=147 sparsity=.9892 nnzs=21375, refcount: 9>
  <dData2D:(temp array for extrapolation) n=21375 m=1, refcount: 1>
refcount: 1>
No. of atoms with KB's overlaping orbs in proc 0. Max # of overlaps:      15     134

InitMesh: MESH = 180 x 160 x 144 = 4147200
InitMesh: Mesh cutoff (required, used) =   300.000   328.469 Ry
New grid distribution [1]: sub = 2

        iscf     Eharris(eV)        E_KS(eV)     FreeEng(eV)     dDmax    Ef(eV) dHmax(eV)
   scf:    1    -2375.205250    -2374.976267    -2374.976267  0.033078 -4.475083  0.340894
   scf:    2    -2374.807667    -2374.928262    -2374.928262  0.028871 -4.396075  1.108519
   scf:    3    -2374.995381    -2374.982800    -2374.982800  0.022143 -4.451056  0.029953
   scf:    4    -2374.982958    -2374.982884    -2374.982884  0.000470 -4.449506  0.018731
   scf:    5    -2374.982960    -2374.982927    -2374.982927  0.000625 -4.448167  0.004168
   scf:    6    -2374.982931    -2374.982929    -2374.982929  0.000148 -4.448175  0.001386
   scf:    7    -2374.982930    -2374.982930    -2374.982930  0.000089 -4.448199  0.000520

SCF Convergence by DM+H criterion
max |DM_out - DM_in|         :     0.0000889618
max |H_out - H_in|      (eV) :     0.0005204816
SCF cycle converged after 7 iterations

Using DM_out to compute the final energy and forces
No. of atoms with KB's overlaping orbs in proc 0. Max # of overlaps:      15     134

siesta: E_KS(eV) =            -2374.9829

siesta: Atomic forces (eV/Ang):
----------------------------------------
   Tot    0.001163    0.000426    0.003988
----------------------------------------
   Max    1.359147
   Res    0.562083    sqrt( Sum f_i^2 / 3N )
----------------------------------------
   Max    1.359147    constrained

Stress tensor Voigt[x,y,z,yz,xz,xy] (kbar):       -3.03       -1.60        0.10       -0.38       -1.26       -0.24
(Free)E + p*V (eV/cell)    -2372.1142
Target enthalpy (eV/cell)    -2374.9829

cgvc: Finished line minimization    4.  Mean atomic displacement =    0.0591

                     ====================================
                        Begin CG opt. move =     10
                     ====================================

outcell: Unit cell vectors (Ang):
       16.335534    0.000000    0.000000
        0.000000   14.676542    0.000000
        0.000000    0.000000   12.703127

outcell: Cell vector modules (Ang)   :   16.335534   14.676542   12.703127
outcell: Cell angles (23,13,12) (deg):     90.0000     90.0000     90.0000
outcell: Cell volume (Ang**3)        :   3045.5639
<dSpData1D:S at geom step 10
  <sparsity:sparsity for geom step 10
    nrows_g=147 nrows=147 sparsity=.9892 nnzs=21375, refcount: 7>
  <dData1D:(new from dSpData1D) n=21375, refcount: 1>
refcount: 1>
new_DM -- step:    11
Re-using DM from previous geometries...
Number of DMs in history: 1
 DM extrapolation coefficients: 
1   1.00000
New DM after history re-use:
<dSpData2D:SpM extrapolated using coords
  <sparsity:sparsity for geom step 10
    nrows_g=147 nrows=147 sparsity=.9892 nnzs=21375, refcount: 9>
  <dData2D:(temp array for extrapolation) n=21375 m=1, refcount: 1>
refcount: 1>
Note: For starting DM, Qtot, Tr[D*S] =         48.00000000         48.05692134
No. of atoms with KB's overlaping orbs in proc 0. Max # of overlaps:      15     134

InitMesh: MESH = 180 x 160 x 144 = 4147200
InitMesh: Mesh cutoff (required, used) =   300.000   328.469 Ry
New grid distribution [1]: sub = 2

        iscf     Eharris(eV)        E_KS(eV)     FreeEng(eV)     dDmax    Ef(eV) dHmax(eV)
   scf:    1    -2374.175513    -2374.979260    -2374.979260  0.168570 -4.737285  1.544433
   scf:    2    -2371.995954    -2374.144071    -2374.144071  0.145030 -3.040506  4.788237
   scf:    3    -2375.364025    -2375.108319    -2375.108319  0.108281 -4.772983  0.096417
   scf:    4    -2375.110580    -2375.109583    -2375.109583  0.003825 -4.770253  0.044081
   scf:    5    -2375.110392    -2375.110041    -2375.110041  0.003302 -4.774508  0.016679
   scf:    6    -2375.110125    -2375.110087    -2375.110087  0.001115 -4.777435  0.008579
   scf:    7    -2375.110104    -2375.110096    -2375.110096  0.000650 -4.779112  0.003243
   scf:    8    -2375.110099    -2375.110098    -2375.110098  0.000261 -4.779532  0.001244
   scf:    9    -2375.110099    -2375.110098    -2375.110098  0.000172 -4.779598  0.000536
   scf:   10    -2375.110098    -2375.110098    -2375.110098  0.000063 -4.779509  0.000337

SCF Convergence by DM+H criterion
max |DM_out - DM_in|         :     0.0000630899
max |H_out - H_in|      (eV) :     0.0003369907
SCF cycle converged after 10 iterations

Using DM_out to compute the final energy and forces
No. of atoms with KB's overlaping orbs in proc 0. Max # of overlaps:      15     134

siesta: E_KS(eV) =            -2375.1101

siesta: Atomic forces (eV/Ang):
----------------------------------------
   Tot   -0.005830    0.002691    0.001016
----------------------------------------
   Max    2.874684
   Res    0.854307    sqrt( Sum f_i^2 / 3N )
----------------------------------------
   Max    2.874684    constrained

Stress tensor Voigt[x,y,z,yz,xz,xy] (kbar):       -5.08       -1.91       -0.46       -0.29       -1.08       -0.18
(Free)E + p*V (eV/cell)    -2370.3976
Target enthalpy (eV/cell)    -2375.1101

                     ====================================
                        Begin CG opt. move =     11
                     ====================================

outcell: Unit cell vectors (Ang):
       16.335534    0.000000    0.000000
        0.000000   14.676542    0.000000
        0.000000    0.000000   12.703127

outcell: Cell vector modules (Ang)   :   16.335534   14.676542   12.703127
outcell: Cell angles (23,13,12) (deg):     90.0000     90.0000     90.0000
outcell: Cell volume (Ang**3)        :   3045.5639
<dSpData1D:S at geom step 11
  <sparsity:sparsity for geom step 11
    nrows_g=147 nrows=147 sparsity=.9892 nnzs=21375, refcount: 7>
  <dData1D:(new from dSpData1D) n=21375, refcount: 1>
refcount: 1>
new_DM -- step:    12
Re-using DM from previous geometries...
Number of DMs in history: 1
 DM extrapolation coefficients: 
1   1.00000
New DM after history re-use:
<dSpData2D:SpM extrapolated using coords
  <sparsity:sparsity for geom step 11
    nrows_g=147 nrows=147 sparsity=.9892 nnzs=21375, refcount: 9>
  <dData2D:(temp array for extrapolation) n=21375 m=1, refcount: 1>
refcount: 1>
No. of atoms with KB's overlaping orbs in proc 0. Max # of overlaps:      15     134

InitMesh: MESH = 180 x 160 x 144 = 4147200
InitMesh: Mesh cutoff (required, used) =   300.000   328.469 Ry
New grid distribution [1]: sub = 2

        iscf     Eharris(eV)        E_KS(eV)     FreeEng(eV)     dDmax    Ef(eV) dHmax(eV)
   scf:    1    -2375.226583    -2375.115050    -2375.115050  0.039031 -4.700563  0.378137
   scf:    2    -2374.927571    -2375.061611    -2375.061611  0.035789 -4.646148  1.221705
   scf:    3    -2375.136333    -2375.122195    -2375.122195  0.026441 -4.683842  0.019893
   scf:    4    -2375.122315    -2375.122260    -2375.122260  0.000859 -4.683545  0.010429
   scf:    5    -2375.122304    -2375.122285    -2375.122285  0.000890 -4.682629  0.004129
   scf:    6    -2375.122289    -2375.122287    -2375.122287  0.000247 -4.682029  0.002222
   scf:    7    -2375.122288    -2375.122288    -2375.122288  0.000176 -4.681599  0.000755
   scf:    8    -2375.122288    -2375.122288    -2375.122288  0.000061 -4.681509  0.000279

SCF Convergence by DM+H criterion
max |DM_out - DM_in|         :     0.0000611007
max |H_out - H_in|      (eV) :     0.0002788384
SCF cycle converged after 8 iterations

Using DM_out to compute the final energy and forces
No. of atoms with KB's overlaping orbs in proc 0. Max # of overlaps:      15     134

siesta: E_KS(eV) =            -2375.1223

siesta: Atomic forces (eV/Ang):
----------------------------------------
   Tot   -0.003984    0.002878    0.002173
----------------------------------------
   Max    2.061869
   Res    0.628321    sqrt( Sum f_i^2 / 3N )
----------------------------------------
   Max    2.061869    constrained

Stress tensor Voigt[x,y,z,yz,xz,xy] (kbar):       -4.56       -1.79       -0.34       -0.33       -1.13       -0.19
(Free)E + p*V (eV/cell)    -2370.8865
Target enthalpy (eV/cell)    -2375.1223

cgvc: Finished line minimization    5.  Mean atomic displacement =    0.0454

                     ====================================
                        Begin CG opt. move =     12
                     ====================================

outcell: Unit cell vectors (Ang):
       16.335534    0.000000    0.000000
        0.000000   14.676542    0.000000
        0.000000    0.000000   12.703127

outcell: Cell vector modules (Ang)   :   16.335534   14.676542   12.703127
outcell: Cell angles (23,13,12) (deg):     90.0000     90.0000     90.0000
outcell: Cell volume (Ang**3)        :   3045.5639
<dSpData1D:S at geom step 12
  <sparsity:sparsity for geom step 12
    nrows_g=147 nrows=147 sparsity=.9892 nnzs=21375, refcount: 7>
  <dData1D:(new from dSpData1D) n=21375, refcount: 1>
refcount: 1>
new_DM -- step:    13
Re-using DM from previous geometries...
Number of DMs in history: 1
 DM extrapolation coefficients: 
1   1.00000
New DM after history re-use:
<dSpData2D:SpM extrapolated using coords
  <sparsity:sparsity for geom step 12
    nrows_g=147 nrows=147 sparsity=.9892 nnzs=21375, refcount: 9>
  <dData2D:(temp array for extrapolation) n=21375 m=1, refcount: 1>
refcount: 1>
No. of atoms with KB's overlaping orbs in proc 0. Max # of overlaps:      15     134

InitMesh: MESH = 180 x 160 x 144 = 4147200
InitMesh: Mesh cutoff (required, used) =   300.000   328.469 Ry
New grid distribution [1]: sub = 2

        iscf     Eharris(eV)        E_KS(eV)     FreeEng(eV)     dDmax    Ef(eV) dHmax(eV)
   scf:    1    -2375.585560    -2375.255157    -2375.255157  0.075599 -4.750138  0.951935
   scf:    2    -2374.765072    -2375.121583    -2375.121583  0.075368 -4.388470  2.436675
   scf:    3    -2375.322443    -2375.282685    -2375.282685  0.053603 -4.606011  0.054362
   scf:    4    -2375.283282    -2375.283006    -2375.283006  0.001190 -4.596419  0.025091
   scf:    5    -2375.283261    -2375.283146    -2375.283146  0.001442 -4.590543  0.007760
   scf:    6    -2375.283178    -2375.283163    -2375.283163  0.000696 -4.589993  0.003705
   scf:    7    -2375.283171    -2375.283167    -2375.283167  0.000561 -4.589894  0.001485
   scf:    8    -2375.283168    -2375.283168    -2375.283168  0.000116 -4.589975  0.001057
   scf:    9    -2375.283168    -2375.283168    -2375.283168  0.000059 -4.590013  0.000511

SCF Convergence by DM+H criterion
max |DM_out - DM_in|         :     0.0000593063
max |H_out - H_in|      (eV) :     0.0005109700
SCF cycle converged after 9 iterations

Using DM_out to compute the final energy and forces
No. of atoms with KB's overlaping orbs in proc 0. Max # of overlaps:      15     134

siesta: E_KS(eV) =            -2375.2832

siesta: Atomic forces (eV/Ang):
----------------------------------------
   Tot   -0.002279    0.000189   -0.000561
----------------------------------------
   Max    1.288864
   Res    0.449520    sqrt( Sum f_i^2 / 3N )
----------------------------------------
   Max    1.288864    constrained

Stress tensor Voigt[x,y,z,yz,xz,xy] (kbar):       -2.91       -1.44       -0.53       -0.14       -1.03        0.22
(Free)E + p*V (eV/cell)    -2372.1904
Target enthalpy (eV/cell)    -2375.2832

                     ====================================
                        Begin CG opt. move =     13
                     ====================================

outcell: Unit cell vectors (Ang):
       16.335534    0.000000    0.000000
        0.000000   14.676542    0.000000
        0.000000    0.000000   12.703127

outcell: Cell vector modules (Ang)   :   16.335534   14.676542   12.703127
outcell: Cell angles (23,13,12) (deg):     90.0000     90.0000     90.0000
outcell: Cell volume (Ang**3)        :   3045.5639
<dSpData1D:S at geom step 13
  <sparsity:sparsity for geom step 13
    nrows_g=147 nrows=147 sparsity=.9892 nnzs=21375, refcount: 7>
  <dData1D:(new from dSpData1D) n=21375, refcount: 1>
refcount: 1>
new_DM -- step:    14
Re-using DM from previous geometries...
Number of DMs in history: 1
 DM extrapolation coefficients: 
1   1.00000
New DM after history re-use:
<dSpData2D:SpM extrapolated using coords
  <sparsity:sparsity for geom step 13
    nrows_g=147 nrows=147 sparsity=.9892 nnzs=21375, refcount: 9>
  <dData2D:(temp array for extrapolation) n=21375 m=1, refcount: 1>
refcount: 1>
Note: For starting DM, Qtot, Tr[D*S] =         48.00000000         47.95112658
No. of atoms with KB's overlaping orbs in proc 0. Max # of overlaps:      15     134

InitMesh: MESH = 180 x 160 x 144 = 4147200
InitMesh: Mesh cutoff (required, used) =   300.000   328.469 Ry
New grid distribution [1]: sub = 2

        iscf     Eharris(eV)        E_KS(eV)     FreeEng(eV)     dDmax    Ef(eV) dHmax(eV)
   scf:    1    -2375.796935    -2375.232107    -2375.232107  0.111528 -4.823305  1.270932
   scf:    2    -2374.205688    -2374.956085    -2374.956085  0.101855 -4.419604  3.260691
   scf:    3    -2375.378607    -2375.295711    -2375.295711  0.072520 -4.640573  0.094002
   scf:    4    -2375.297341    -2375.296595    -2375.296595  0.001806 -4.627423  0.043670
   scf:    5    -2375.297234    -2375.296943    -2375.296943  0.002040 -4.620789  0.012589
   scf:    6    -2375.297042    -2375.296997    -2375.296997  0.001264 -4.619862  0.004864
   scf:    7    -2375.297011    -2375.297005    -2375.297005  0.000701 -4.619992  0.002326
   scf:    8    -2375.297007    -2375.297006    -2375.297006  0.000268 -4.620156  0.001783
   scf:    9    -2375.297007    -2375.297006    -2375.297006  0.000105 -4.620207  0.000950
   scf:   10    -2375.297006    -2375.297006    -2375.297006  0.000043 -4.620194  0.000442

SCF Convergence by DM+H criterion
max |DM_out - DM_in|         :     0.0000433475
max |H_out - H_in|      (eV) :     0.0004419896
SCF cycle converged after 10 iterations

Using DM_out to compute the final energy and forces
No. of atoms with KB's overlaping orbs in proc 0. Max # of overlaps:      15     134

siesta: E_KS(eV) =            -2375.2970

siesta: Atomic forces (eV/Ang):
----------------------------------------
   Tot    0.008252   -0.000927   -0.000685
----------------------------------------
   Max    2.644926
   Res    0.913635    sqrt( Sum f_i^2 / 3N )
----------------------------------------
   Max    2.644926    constrained

Stress tensor Voigt[x,y,z,yz,xz,xy] (kbar):       -0.45       -0.75       -0.66        0.27       -0.86        0.87
(Free)E + p*V (eV/cell)    -2374.1174
Target enthalpy (eV/cell)    -2375.2970

                     ====================================
                        Begin CG opt. move =     14
                     ====================================

outcell: Unit cell vectors (Ang):
       16.335534    0.000000    0.000000
        0.000000   14.676542    0.000000
        0.000000    0.000000   12.703127

outcell: Cell vector modules (Ang)   :   16.335534   14.676542   12.703127
outcell: Cell angles (23,13,12) (deg):     90.0000     90.0000     90.0000
outcell: Cell volume (Ang**3)        :   3045.5639
<dSpData1D:S at geom step 14
  <sparsity:sparsity for geom step 14
    nrows_g=147 nrows=147 sparsity=.9892 nnzs=21375, refcount: 7>
  <dData1D:(new from dSpData1D) n=21375, refcount: 1>
refcount: 1>
new_DM -- step:    15
Re-using DM from previous geometries...
Number of DMs in history: 1
 DM extrapolation coefficients: 
1   1.00000
New DM after history re-use:
<dSpData2D:SpM extrapolated using coords
  <sparsity:sparsity for geom step 14
    nrows_g=147 nrows=147 sparsity=.9892 nnzs=21375, refcount: 9>
  <dData2D:(temp array for extrapolation) n=21375 m=1, refcount: 1>
refcount: 1>
No. of atoms with KB's overlaping orbs in proc 0. Max # of overlaps:      15     134

InitMesh: MESH = 180 x 160 x 144 = 4147200
InitMesh: Mesh cutoff (required, used) =   300.000   328.469 Ry
New grid distribution [1]: sub = 2

        iscf     Eharris(eV)        E_KS(eV)     FreeEng(eV)     dDmax    Ef(eV) dHmax(eV)
   scf:    1    -2374.987159    -2375.315044    -2375.315044  0.051618 -4.500619  0.610962
   scf:    2    -2375.116993    -2375.261723    -2375.261723  0.050175 -4.732561  1.574153
   scf:    3    -2375.343594    -2375.327091    -2375.327091  0.036145 -4.572949  0.036106
   scf:    4    -2375.327402    -2375.327259    -2375.327259  0.000923 -4.578670  0.019352
   scf:    5    -2375.327384    -2375.327328    -2375.327328  0.000981 -4.581984  0.004881
   scf:    6    -2375.327344    -2375.327337    -2375.327337  0.000495 -4.582254  0.002341
   scf:    7    -2375.327340    -2375.327338    -2375.327338  0.000341 -4.582189  0.001079
   scf:    8    -2375.327339    -2375.327339    -2375.327339  0.000096 -4.582107  0.000796

SCF Convergence by DM+H criterion
max |DM_out - DM_in|         :     0.0000963143
max |H_out - H_in|      (eV) :     0.0007957998
SCF cycle converged after 8 iterations

Using DM_out to compute the final energy and forces
No. of atoms with KB's overlaping orbs in proc 0. Max # of overlaps:      15     134

siesta: E_KS(eV) =            -2375.3273

siesta: Atomic forces (eV/Ang):
----------------------------------------
   Tot    0.003633   -0.001808   -0.001836
----------------------------------------
   Max    2.010463
   Res    0.649906    sqrt( Sum f_i^2 / 3N )
----------------------------------------
   Max    2.010463    constrained

Stress tensor Voigt[x,y,z,yz,xz,xy] (kbar):       -1.53       -1.08       -0.63        0.08       -0.93        0.58
(Free)E + p*V (eV/cell)    -2373.2713
Target enthalpy (eV/cell)    -2375.3273

cgvc: Finished line minimization    6.  Mean atomic displacement =    0.0853

                     ====================================
                        Begin CG opt. move =     15
                     ====================================

outcell: Unit cell vectors (Ang):
       16.335534    0.000000    0.000000
        0.000000   14.676542    0.000000
        0.000000    0.000000   12.703127

outcell: Cell vector modules (Ang)   :   16.335534   14.676542   12.703127
outcell: Cell angles (23,13,12) (deg):     90.0000     90.0000     90.0000
outcell: Cell volume (Ang**3)        :   3045.5639
<dSpData1D:S at geom step 15
  <sparsity:sparsity for geom step 15
    nrows_g=147 nrows=147 sparsity=.9886 nnzs=21363, refcount: 7>
  <dData1D:(new from dSpData1D) n=21363, refcount: 1>
refcount: 1>
new_DM -- step:    16
Re-using DM from previous geometries...
Number of DMs in history: 1
 DM extrapolation coefficients: 
1   1.00000
New DM after history re-use:
<dSpData2D:SpM extrapolated using coords
  <sparsity:sparsity for geom step 15
    nrows_g=147 nrows=147 sparsity=.9886 nnzs=21363, refcount: 9>
  <dData2D:(temp array for extrapolation) n=21363 m=1, refcount: 1>
refcount: 1>
Note: For starting DM, Qtot, Tr[D*S] =         48.00000000         47.92444421
No. of atoms with KB's overlaping orbs in proc 0. Max # of overlaps:      15     134

InitMesh: MESH = 180 x 160 x 144 = 4147200
InitMesh: Mesh cutoff (required, used) =   300.000   328.469 Ry
New grid distribution [1]: sub = 2

        iscf     Eharris(eV)        E_KS(eV)     FreeEng(eV)     dDmax    Ef(eV) dHmax(eV)
   scf:    1    -2375.933934    -2375.370310    -2375.370310  0.124644 -4.532004  1.475820
   scf:    2    -2372.709794    -2374.614203    -2374.614203  0.095061 -4.614547  4.509532
   scf:    3    -2375.679003    -2375.474345    -2375.474345  0.070670 -4.547915  0.124079
   scf:    4    -2375.476908    -2375.475724    -2375.475724  0.001634 -4.551517  0.068511
   scf:    5    -2375.476803    -2375.476342    -2375.476342  0.001771 -4.553201  0.011549
   scf:    6    -2375.476420    -2375.476384    -2375.476384  0.000440 -4.552419  0.005525
   scf:    7    -2375.476399    -2375.476392    -2375.476392  0.000280 -4.551548  0.002430
   scf:    8    -2375.476395    -2375.476394    -2375.476394  0.000134 -4.551213  0.001937
   scf:    9    -2375.476394    -2375.476394    -2375.476394  0.000088 -4.551099  0.001044
   scf:   10    -2375.476394    -2375.476394    -2375.476394  0.000036 -4.551113  0.000447

SCF Convergence by DM+H criterion
max |DM_out - DM_in|         :     0.0000363442
max |H_out - H_in|      (eV) :     0.0004470748
SCF cycle converged after 10 iterations

Using DM_out to compute the final energy and forces
No. of atoms with KB's overlaping orbs in proc 0. Max # of overlaps:      15     134

siesta: E_KS(eV) =            -2375.4764

siesta: Atomic forces (eV/Ang):
----------------------------------------
   Tot    0.009536    0.002342    0.001066
----------------------------------------
   Max    1.357846
   Res    0.529780    sqrt( Sum f_i^2 / 3N )
----------------------------------------
   Max    1.357846    constrained

Stress tensor Voigt[x,y,z,yz,xz,xy] (kbar):       -0.38        0.12       -0.21        0.41       -0.87       -0.22
(Free)E + p*V (eV/cell)    -2375.1770
Target enthalpy (eV/cell)    -2375.4764

outcoor: Final (unrelaxed) atomic coordinates (Ang):        
   -0.03403092    0.12880533   -0.14606659   1       1  N
   -1.45927065    0.03321251   -0.09653460   2       2  C
   -2.15268363    1.33243114   -0.22978038   2       3  C
   -1.44313207    2.45703569    0.05525157   2       4  C
   -0.08012223    2.42541693    0.39732099   1       5  N
    0.71877162    1.28992558    0.05695391   2       6  C
   -3.27136635    1.32603407   -1.25030097   2       7  C
   -4.32029156    1.38530733   -0.89905988   3       8  H
   -3.00795472    2.15573212   -1.93288708   3       9  H
   -3.11346404    0.36648143   -1.79530550   3      10  H
   -1.88735592    3.47838963   -0.06490655   3      11  H
    0.47584936    3.24443527    0.74204675   3      12  H
    0.42668323   -0.68469494   -0.65269720   3      13  H
    1.96858009    1.30765340   -0.03368695   4      14  O
   -1.98411835   -1.09783542    0.01873190   4      15  O

coxmol: Writing XMOL coordinates into file optimization.xyz                                                                                                                                                                                                                    

siesta: Program's energy decomposition (eV):
siesta: Ebs     =      -666.888879
siesta: Eions   =      3810.579487
siesta: Ena     =       842.769699
siesta: Ekin    =      1606.241081
siesta: Enl     =      -228.430621
siesta: Eso     =         0.000000
siesta: Edftu   =         0.000000
siesta: DEna    =       -56.820240
siesta: DUscf   =         5.904740
siesta: DUext   =         0.000000
siesta: Ex      =      -679.317856
siesta: Ec      =       -55.243710
siesta: Exc     =      -734.561566
siesta: EbV     =         0.000000
siesta: eta*DQ  =         0.000000
siesta: Emadel  =         0.000000
siesta: Emeta   =         0.000000
siesta: Emolmec =         0.000000
siesta: Ekinion =         0.000000
siesta: Eharris =     -2375.476394
siesta: Etot    =     -2375.476394
siesta: FreeEng =     -2375.476394

siesta: Final energy (eV):
siesta:  Band Struct. =    -666.888879
siesta:       Kinetic =    1606.241081
siesta:       Hartree =    4860.251012
siesta:         Edftu =       0.000000
siesta:       Eso     =       0.000000
siesta:    Ext. field =       0.000000
siesta:         Exch. =    -679.317856
siesta:         Corr. =     -55.243710
siesta:     Bulk bias =       0.000000
siesta:   Exch.-corr. =    -734.561566
siesta:  Ion-electron =  -11172.479076
siesta:       Ion-ion =    3065.072155
siesta:       Ekinion =       0.000000
siesta: D3 dispersion =       0.000000
siesta:         Total =   -2375.476394
siesta:         Fermi =      -4.551113

siesta: Atomic forces (eV/Ang):
siesta:      1    0.041264   -0.671796   -0.733072
siesta:      2    0.229546   -0.996676    0.696173
siesta:      3   -0.224959   -0.846902   -0.447695
siesta:      4    1.009383    1.357846    0.462076
siesta:      5    0.427109   -0.433942    0.152083
siesta:      6    0.882836    0.091054   -0.041697
siesta:      7    0.265241   -0.106240    0.188349
siesta:      8   -0.423560    0.042999    0.270860
siesta:      9   -0.443338    0.383367   -0.526619
siesta:     10   -0.403300   -0.188203   -0.311241
siesta:     11    0.036736    0.009061    0.029826
siesta:     12   -0.521925   -0.366393   -0.379744
siesta:     13   -0.124079    0.763481    0.963128
siesta:     14   -0.810715    0.297560    0.204906
siesta:     15    0.069297    0.667126   -0.526267
siesta: ----------------------------------------
siesta:    Tot    0.009536    0.002342    0.001066

siesta: Stress tensor (static) (eV/Ang**3):
siesta:    -0.000239   -0.000135   -0.000542
siesta:    -0.000135    0.000074    0.000258
siesta:    -0.000542    0.000258   -0.000130

siesta: Cell volume =       3045.563911 Ang**3

siesta: Pressure (static):
siesta:                Solid            Molecule  Units
siesta:           0.00000107         -0.00000006  Ry/Bohr**3
siesta:           0.00009832         -0.00000559  eV/Ang**3
siesta:           0.15752465         -0.00895995  kBar

Basis Enthalpy Calculation:
    Basis Pressure for species 1(N) :      0.0200000 GPa
    Basis Pressure for species 2(C) :      0.0200000 GPa
    Basis Pressure for species 3(H) :      0.0200000 GPa
    Basis Pressure for species 4(O) :      0.0200000 GPa

    Orbital volume contribution        =           1.047650 eV
    (Free)E + p_basis*V_orbitals       =       -2374.428745 eV
    (Free)Eharris+ p_basis*V_orbitals  =       -2374.428745 eV
WARNING: BASIS_ENTHALPY and BASIS_HARRIS_ENTHALPY files are deprecated. They will be removed in future releases.
Please use system_label.BASIS_ENTHALPY in your scripts instead.

siesta: Electric dipole (a.u.)  =   -0.553388    1.438665   -0.333880
siesta: Electric dipole (Debye) =   -1.406573    3.656722   -0.848637

cite: Please indicate the Siesta version in published work: 5.4.2
cite: This calculation has made use of features in the following articles
cite: which we encourage you to cite in published work.
cite: (Please see "optimization.bib" for a BibTeX file.)
        Primary SIESTA paper
          DOI: www.doi.org/10.1088/0953-8984/14/11/302
        PSML pseudopotential format
          DOI: www.doi.org/10.1016/j.cpc.2018.02.011


timer: Elapsed wall time (sec) =     362.597
timer: CPU execution times (sec):

Routine            Calls   Time/call    Tot.time        %
siesta                 1     362.307     362.307   100.00
Setup                  1       0.227       0.227     0.06
bands                  1       0.000       0.000     0.00
KSV_init               1       0.000       0.000     0.00
IterGeom              16      22.629     362.062    99.93
geom_init             16       3.490      55.834    15.41
state_init            16       0.211       3.369     0.93
hsparse               16       0.000       0.007     0.00
overlap               16       0.003       0.050     0.01
Setup_H0              16       1.674      26.785     7.39
naefs                 32       0.000       0.001     0.00
dnaefs                16       0.000       0.000     0.00
two-body              16       0.000       0.000     0.00
MolMec                32       0.000       0.000     0.00
kinefsm               32       0.003       0.101     0.03
nlefsm                32       0.010       0.330     0.09
DHSCF_Init            16       1.665      26.634     7.35
DHSCF1                16       0.037       0.599     0.17
InitMesh              16       0.037       0.599     0.17
INITMESH              16       0.000       0.000     0.00
DHSCF2                16       1.627      26.035     7.19
REMESH                16       0.088       1.414     0.39
REORD                616       0.005       3.103     0.86
PHION                 16       1.185      18.955     5.23
COMM_BSC             800       0.004       3.021     0.83
POISON               204       0.173      35.329     9.75
fft                  408       0.064      26.016     7.18
setup_H              172       1.593     273.932    75.61
DHSCF                188       1.756     330.105    91.11
DHSCF3               188       1.589     298.685    82.44
rhoofd               188       0.468      87.913    24.26
XC                   188       0.537     101.029    27.88
GXC-CellXC           188       0.515      96.893    26.74
gridxc@cellXC        188       0.515      96.892    26.74
vmat                 188       0.337      63.393    17.50
IterSCF              156       1.597     249.059    68.74
compute_dm           156       0.005       0.738     0.20
diagon               156       0.005       0.732     0.20
r-eigvec             156       0.004       0.579     0.16
r-buildHS            156       0.000       0.006     0.00
rdiag                156       0.004       0.572     0.16
rdiag1               156       0.000       0.020     0.01
rdiag2               156       0.000       0.064     0.02
rdiag3               156       0.002       0.344     0.10
rdiag4               156       0.001       0.139     0.04
r-buildD             156       0.001       0.145     0.04
MIXER                140       0.000       0.018     0.00
PostSCF               16       3.572      57.159    15.78
FINAL_HF              16       3.572      57.159    15.78
DHSCF4                16       1.964      31.419     8.67
dfscf                 16       1.729      27.665     7.64
overfsm               16       0.003       0.052     0.01
writeHSX              16       0.000       0.005     0.00
state_analysis        16       0.000       0.002     0.00
siesta_move           16       0.000       0.005     0.00
Analysis               1       0.001       0.001     0.00
optical                1       0.000       0.000     0.00
  

>> End of run:  24-MAR-2026  11:53:44
Job completed
Job completed
